<?xml version="1.0"?>
<VTKFile type="UnstructuredGrid"  version="0.1"  >
<UnstructuredGrid>
<Piece  NumberOfPoints="1404" NumberOfCells="2604">
<Points>
<DataArray  type="Float64"  NumberOfComponents="3"  format="ascii">0 0.41 0  0 0 0  2.2 0 0  2.2 0.41 0  0.2353553390593274 0.2353553390593274 0  0.25 0.2 0  0.2353553390593274 0.1646446609406726 0  0.2 0.15 0  0.1646446609406726 0.1646446609406726 0  0.15 0.2 0  0.1646446609406726 0.2353553390593274 0  0.2 0.25 0  0.6923879532511287 0.188268343236509 0  0.7 0.15 0  0.6923879532511287 0.1117316567634909 0  0.6707106781186547 0.07928932188134523 0  0.6382683432365089 0.05761204674887133 0  0.6 0.04999999999999999 0  0.5617316567634909 0.05761204674887134 0  0.5292893218813453 0.07928932188134524 0  0.5076120467488713 0.111731656763491 0  0.5 0.15 0  0.5076120467488713 0.188268343236509 0  0.5292893218813453 0.2207106781186547 0  0.561731656763491 0.2423879532511287 0  0.6 0.25 0  0.6382683432365089 0.2423879532511287 0  0.6707106781186547 0.2207106781186547 0  1.1 0 0  0 0.205 0  1.1 0.41 0  0.55 0 0  0.55 0.41 0  0.275 0 0  0.8250000000000001 0 0  0.275 0.41 0  0.8250000000000001 0.41 0  0.6875 0 0  0.61875 0 0  1.65 0.41 0  1.65 0 0  1.375 0 0  1.375 0.41 0  1.925 0 0  1.925 0.41 0  1.5125 0.205 0  1.7875 0.205 0  0.9625000000000001 0.205 0  1.2375 0.205 0  2.2 0.205 0  1.99375 0.2152743902439024 0  0.4125 0.41 0  2.0625 0 0  2.0625 0.41 0  2.2 0.3075 0  1.7875 0.41 0  1.375 0.1486128048780488 0  1.5125 0 0  1.7875 0 0  1.5125 0.41 0  0.9625000000000001 0.41 0  0.4125 0 0  0.1375 0 0  0.1375 0.41 0  0.6875 0.41 0  0.9625000000000001 0 0  1.2375 0 0  1.1 0.1486128048780488 0  1.2375 0.41 0  1.65 0.1486128048780487 0  0.823495464168302 0.2603780552348366 0  0.3738707794507017 0.2720196349488618 0  0.3662291281331582 0.1311456406657909 0  1.676715909090909 0.2793064024390244 0  1.126715909090909 0.2793064024390244 0  1.348284090909091 0.2793064024390244 0  0.8287581077665108 0.1302150898054257 0  1.894702181800738 0.1282910975492754 0  2.092797818199262 0.1282910975492754 0  1.85625 0.3075 0  0 0.3075 0  0 0.1025 0  2.099172119769978 0.25625 0  0.4752414543992246 0.3180372603390748 0  1.99375 0.08395950269330846 0  1.459960956013612 0.3075 0  1.569025960719943 0.2986889805672169 0  1.03125 0.3278689922742084 0  1.959375 0.3126371951219512 0  1.749222215368287 0.1025 0  1.275777784631713 0.1025 0  0.9228016959331474 0.3075 0  1.000777784631713 0.1025 0  2.2 0.1025 0  1.225938124459196 0.3075 0  1.550777784631713 0.1025 0  1.44375 0.07430640243902442 0  1.16875 0.07430640243902439 0  0.7562500000000001 0.3358727844323386 0  0.89375 0 0  1.899250267340833 0.2229966846119207 0  0.61875 0.41 0  1.766482954545455 0.2934032012195123 0  1.046078563095834 0.2389031808701145 0  1.421109702350723 0.2261157654379721 0  0.07567171807980319 0.25625 0  0.2511897295290552 0.3235829392832554 0  0.07655002503762308 0.1488653460959645 0  0.1377245246847496 0.3206030474919778 0  0.6694099692696568 0.3242771941727899 0  0.9168971191497528 0.1295727156104653 0  0.7562500000000001 0 0  2.118919042110979 0.3422084711244843 0  2.13125 0 0  0.06875000000000001 0 0  1.30625 0.41 0  1.597888256393107 0.2173787389261347 0  0.34375 0.41 0  0.2493272016354703 0.08091360081773515 0  0.5588896233436766 0.3264056208677571 0  1.829299675393195 0.07400700849299596 0  0.1334079128307869 0.08523463035786674 0  1.71875 0.41 0  0.06875000000000001 0.41 0  1.16875 0.41 0  2.038220665644273 0.332420740103091 0  0.8810647413215221 0.2027360103977071 0  0.34375 0 0  0.7453891198966415 0.2471459041008237 0  0.42112093004955 0.1988123139090554 0  0.8314023090855964 0.3351170841770613 0  0.89375 0.41 0  0.7906250000000001 0.06615386481594063 0  1.452769549894695 0.1548122580621249 0  1.369219062229598 0.07430640243902442 0  1.30625 0 0  1.07420695807087 0.07430640243902439 0  1.720943423819132 0.1714577452753128 0  1.157188124459196 0.205 0  1.304056576180868 0.1714577452753128 0  1.67579304192913 0.07430640243902437 0  1.209670467133757 0.136210026696477 0  0.4312800784902823 0.08036147352247747 0  0.8723959680194693 0.07066860609690805 0  1.025335513626278 0.1700681449722324 0  0.7945632284247136 0.1940204203251442 0  0.378125 0.3452261501101892 0  0.3307109909790086 0.2037165635083759 0  0.3009701032039409 0.2702970083403109 0  0.20625 0.41 0  1.58125 0 0  0.4812500000000001 0 0  0.9838963872396855 0.2722244191167347 0  0.06772484939107212 0.3260067317374387 0  0.20625 0 0  1.58125 0.41 0  1.631724228912893 0.3381867502687533 0  1.825608881788174 0.14499488549201 0  1.85625 0 0  1.44375 0 0  1.44375 0.41 0  1.85625 0.41 0  2.13125 0.41 0  0.7562500000000001 0.41 0  0.4812500000000001 0.41 0  1.16875 0 0  1.03125 0.41 0  1.03125 0 0  1.71875 0 0  1.99375 0 0  1.99375 0.41 0  0.9408708167433545 0.0651989315768642 0  1.340625 0.3489494290853124 0  1.134375 0.3489494290853123 0  1.700180620188976 0.3438659752031281 0  0.29668452290037 0.1318471691375986 0  0.3175441051360096 0.06496934809856265 0  0.06509151636162461 0.08140814015999148 0  2.135782184673599 0.07126652247502523 0  1.668441847249787 0.2129203728327609 0  1.295782514339747 0.2378437748815763 0  1.409375 0.3520314716057996 0  2.129248544730567 0.1906135162504124 0  2.060771381434487 0.1989445750470348 0  2.013252586573865 0.1496169464686054 0  1.942766402200229 0.1734448904596831 0  1.895522487186454 0.06076163953489683 0  2.069553871656643 0.06605731020975725 0  0.4670911801404742 0.2498408582391372 0  0.7622743084658112 0.1264100838268133 0  1.274680914880868 0.3520219391081363 0  0.3148669572599245 0.3331753056385887 0  1.614713220494657 0.09473434380863296 0  1.72990325744076 0.2380068107952482 0  1.356580098625191 0.2120393231351682 0  2.034370752044885 0.2668681600792073 0  1.51768709249349 0.3426260931494756 0  1.561883724969884 0.1650446847858835 0  1.197344062229598 0.2523725417393646 0  1.804085235518364 0.3468178408964637 0  1.817887819205233 0.2589243285818559 0  1.905897727272727 0.3485060975609756 0  0.7296439733931823 0.06337466644369745 0  0.4250935971865949 0.1394919578475796 0  0.3773030136511669 0.05130372097998036 0  1.192836486056382 0.3562350748565544 0  1.1029124365364 0.226143510831178 0  1.28257088594801 0.2944411014911587 0  0.1905185804731426 0.06029880676029167 0  1.474860187679412 0.2504218616229368 0  1.406767003493824 0.2829282258560709 0  0.5209826960981064 0.2830664557824064 0  0.5131119502780163 0.3617405848213254 0  0.1948220106098172 0.3081993407644811 0  1.845656689180403 0.1998310418452388 0  2.144958525570388 0.2909790873294231 0  2.2 0.15375 0  0.8833025251326762 0.2625402923007629 0  0.171875 0.3653875762360952 0  1.57794966442982 0.3540357145964566 0  0.446875 0.366068291212731 0  0.4272051715206439 0.2891929346190664 0  1.508991196088596 0.1421783375065625 0  1.50436820029908 0.06143401634903343 0  1.223857000523521 0.08235548624535324 0  0.6137904613287555 0.3066826366281556 0  1.153316824384777 0.1289850171317838 0  0.9751573703656133 0.327632618473408 0  2.148922302309752 0.1258841779285271 0  0.9281250000000001 0.3643758685795699 0  1.621993280276081 0.2841214267927899 0  1.550118654119087 0.2461998729100966 0  1.327182649291491 0.1216967252533594 0  0.9939955742738924 0.04663549843168518 0  1.753125 0.04556020050186112 0  1.271875 0.04556020050186116 0  0.9734326767716519 0.1506854560854393 0  0.103125 0.3675775577080512 0  1.94956388244759 0.1180512551534177 0  1.949997712993411 0.04965831614304109 0  0.717433898748555 0.295596016333797 0  1.771961817615021 0.1530278789497521 0  1.909246823951428 0.2812757146784527 0  0 0.35875 0  1.050632804931928 0.1226269704412814 0  0.05695108326502596 0.2024009637347154 0  1.948575539857022 0.2445328248721197 0  1.697271520964565 0.1233917627620729 0  1.065625 0.3689344961371042 0  1.085849084308977 0.3170853572226867 0  0.1015495998772944 0.04226029099983852 0  1.577403511714593 0.05463601888079143 0  1.751571320346033 0.3651102912045228 0  2.2 0.35875 0  0.7441773632462837 0.1786786606458751 0  0 0.05125 0  1.466879772203159 0.3611261772912453 0  0.6282230348858767 0.3577675483994025 0  1.990280163552011 0.3564754268533217 0  1.17471064520912 0.2990917256188288 0  0 0.25625 0  2.2 0.25625 0  2.2 0.05125 0  0 0.15375 0  1.853978576207987 0.35875 0  1.515638456102889 0.2882700110184686 0  2.150453692751374 0.2387066338105111 0  1.323782677156475 0.04897634338873398 0  1.409375 0.03715320121951221 0  1.406484531114799 0.1087852750766809 0  1.134375 0.03715320121951219 0  0.721875 0.3729363922161693 0  0.7941695928236929 0.3696489254637395 0  0.7934827162619036 0.3013409431456604 0  1.627401732573545 0.04552157221025036 0  0.9352049974617431 0.2507047965699472 0  0.8763260682738339 0.3611103317460093 0  2.045405893604797 0.1105340662939892 0  1.255408269734577 0.1577307500159216 0  2.028125 0.03707597992059326 0  1.003030137506755 0.3689344961371042 0  1.248258025468107 0.2565907092181813 0  1.203125 0.03661323374043041 0  0.4800125512335631 0.0549472816999725 0  2.072662025974815 0.2975086504196739 0  0.240625 0.3729825336867542 0  1.113252391110535 0.10238286244357 0  1.071052763974265 0.1885202618768825 0  0.8738809401657862 0.3106483608284829 0  0.6786819423003397 0.2677558482644021 0  1.887722846421017 0.1760882698830035 0  1.472640588990488 0.1118278026240017 0  0.5843750000000001 0.41 0  1.865937103925594 0.2604137786483804 0  1.463913572748262 0.2030442564990043 0  1.376426316059077 0.3186741374914345 0  0.1038643885363755 0.2162701735320032 0  0.1769473813227781 0.1070849728467114 0  0.458787839809176 0.171541653775316 0  0.240625 0 0  0.04179569703428024 0.2877217852556549 0  0.1258346557601885 0.2699740073054968 0  1.722140693354707 0.282908100935778 0  0.41206179117512 0.2448172567039922 0  0.3702471778075604 0.2265217604228704 0  0.3714881805374215 0.1786967818665642 0  1.77397096061971 0.2481483237422926 0  2.105123889160691 0.03743885948498647 0  1.001138337938679 0.229719337663998 0  1.051242910646791 0.2854826559431138 0  1.395420985247586 0.18
[...]
<PointData  Scalars="f_43"> 
<DataArray  type="Float64"  Name="f_43"  format="ascii">1.0830314788174146e-01  2.0467823256461465e-01  7.6235117113232630e-11  2.7971589608539285e-10  8.0794994002563320e-02  8.3910484987144651e-02  7.0440070561982607e-02  6.6743064451987827e-02  1.3721664093918076e-01  1.3870338881532243e-01  8.9590234676524119e-02  7.1524232935658433e-02  -4.3000013029922610e-03  -3.5425725266192195e-03  -7.6185853688522896e-03  -1.4689138664496695e-02  3.5173180812270187e-02  -6.6752368962922654e-03  -2.1466345702960455e-02  8.7224847121418772e-02  1.5896335061012026e-01  1.5210594244155279e-01  7.4819921435758344e-02  1.6178940051477190e-02  -1.9168164631030431e-02  -3.3663840232574474e-02  -2.4394655282714891e-02  -1.0704428848250062e-02  -1.8113497329995537e-03  1.1842943636327209e-01  2.8437356326893293e-03  5.7565567452729040e-02  4.7748640337387620e-02  1.0151921049272805e-01  -1.4620466932134075e-03  9.3179213711303305e-02  1.2425086764703097e-03  -3.4041082556993457e-03  3.1141020074010239e-03  7.2232587873408251e-03  7.0859608183677716e-03  1.4472772547274693e-02  4.2271360223331495e-03  3.5065771365172895e-03  3.6318907069591137e-03  8.5131961426756948e-03  5.3560177893429211e-03  -5.8930887456268722e-04  4.1225676672611671e-03  1.6823342816201597e-10  2.6804873043953167e-03  8.0701794133807458e-02  1.7663079935421738e-03  1.8012109031029610e-03  2.4867280598965389e-10  5.4985565442232072e-03  1.1765680529729346e-02  1.0120480279500790e-02  5.2130090444561595e-03  7.6137609193418481e-03  2.3812527530114435e-03  1.0659877632365833e-01  1.1420183326479220e-01  1.0729876025789020e-01  8.4822681715170708e-03  -2.5967543793320533e-03  1.0713152133292764e-02  -6.1145304095878289e-03  1.6422537199808566e-03  7.0939112679632632e-03  2.3146047327021134e-03  9.1800988700968006e-02  9.9851090573160356e-02  6.8898900767797606e-03  1.4694620186391832e-03  3.3150494195856917e-03  5.9249132410084198e-04  3.9103909262059051e-03  1.3844550219389133e-03  4.5421890156948181e-03  1.0908337763835239e-01  1.2887710922618850e-01  1.3115929642427508e-03  7.2194218106963567e-02  2.6465401936397455e-03  6.8717096014206773e-03  7.8549957000395871e-03  3.1475819512411457e-03  3.1610152565760244e-03  5.7197976649574177e-03  1.1571602801578106e-02  2.2601258653693781e-03  -3.4507191580707614e-03  1.9192011051105221e-10  1.8944117222604358e-03  8.9214855550990031e-03  1.2250180715624875e-02  1.3718114218059961e-03  2.0245405944556709e-03  -1.4340684307945671e-03  3.9162484337257044e-03  2.3917698783569575e-02  5.7453827767995616e-03  -2.6774142186311977e-03  7.5576950228477460e-03  1.1362455082726781e-01  9.0612765426914654e-02  1.2889303582633491e-01  1.0546687139972162e-01  2.3243261957631976e-03  -5.3754814065539011e-04  -3.1426278499729603e-03  1.0593802603262547e-03  8.8379945635991373e-04  1.2827138952293571e-01  2.1853871713681445e-03  7.7387285723997442e-03  8.7108612497055260e-02  9.5483704877149078e-02  3.4473042504593217e-02  4.7036518609851396e-03  1.2115850102324191e-01  6.4115934324544474e-03  1.0869326851144172e-01  2.3016405796755443e-03  2.1207790820075151e-03  2.2958318950090772e-03  1.0301527353149556e-01  -2.1959883687478077e-03  9.6850039969958251e-02  2.1931279363648060e-03  1.6869601896735728e-03  -5.1686088027434014e-04  1.0251823799974543e-02  1.4297804821688267e-02  1.4628792326183762e-02  -4.0869925241768506e-03  6.1669579956726422e-03  -1.9682793528454237e-03  9.5592728047180341e-03  6.6994370055284127e-03  3.3335203215783672e-03  1.1713220075103660e-01  -4.5011831259465990e-04  -4.4109223670343034e-03  1.1137988437238421e-03  8.5557659138868411e-02  8.9199333945258322e-02  8.7755423336412550e-02  1.0123941481516310e-01  8.3675162999502627e-03  1.0655556051902196e-01  3.4934629044133060e-04  1.0862637538695118e-01  1.0562021727636502e-01  7.7344360502417525e-03  7.3980863833119923e-03  4.7949366101658255e-03  4.3599017929680517e-03  1.2372061239311694e-02  6.4499583280242332e-03  4.5613916658567618e-03  8.9723920686169941e-04  2.4780594353384405e-03  6.8640306541085119e-02  3.7326873606016728e-03  2.8405952782905165e-03  -3.5088637400337895e-03  6.0934761528734071e-03  2.6422002524125032e-03  2.7108615866502555e-03  -1.6123481576802660e-03  2.6505584778686001e-03  3.3105559971986710e-03  6.6355856322001224e-03  8.7773442048978842e-02  1.0165539333030152e-01  1.2882280143717559e-01  8.2766571582591016e-04  6.9072762165097385e-03  4.2023238381579354e-03  5.1484762949679658e-03  9.1558253817650940e-04  1.8041332857691896e-03  2.4082592049941209e-03  3.3210692964319960e-03  3.8756621346878331e-03  1.6776834446946742e-03  8.1561429483662795e-02  -1.9987619294144191e-03  1.6078410431347391e-03  8.9462160704833760e-02  7.6638745531797106e-03  6.1586200328694963e-03  7.2922582012930883e-03  2.1623760972273899e-03  7.6453786254789113e-03  8.3468891746619096e-03  1.8121093690812978e-03  5.2667667478814182e-03  5.0202820481659869e-03  3.8861686807386739e-03  -2.2594525028522654e-03  1.1838470958501625e-01  1.0636327903780277e-01  2.4728505103854444e-03  -3.3202545019921769e-03  1.6193928350189920e-03  1.0657700104271979e-01  7.7854428377196394e-03  5.4338766320860144e-03  4.6287057381992493e-02  5.8550631266820807e-02  9.2926818066673134e-02  4.5932787763822251e-03  7.1571896528083297e-04  -1.8130698544076627e-10  2.5177827804895594e-03  1.0367680793597889e-01  7.7297367703768344e-03  7.5534884851632941e-02  8.7022361530791778e-02  9.4640613693481382e-03  1.0371693222529585e-02  7.2795034186843230e-03  5.5361483064753515e-04  -2.8261945187643155e-03  2.7665336241382505e-03  6.6024186684428840e-04  2.6627358237657295e-03  7.4954795463691454e-03  8.0498735446122485e-03  1.3065372168209721e-02  -2.8054353210411891e-03  5.6522064326467525e-03  1.2530296098499418e-02  -2.2395875755439757e-03  1.0784003122035116e-01  3.2126655357483345e-03  3.1941416089896575e-03  -2.3291796408907517e-03  5.4849984921378570e-03  3.8178908596386515e-03  1.0814026700022336e-01  -5.4275305227950961e-03  1.2108862122765020e-01  3.2800296015512887e-03  6.4156106994271763e-03  3.4495430541627839e-03  3.0763527339273083e-03  1.2298822333722582e-01  8.4766022245503607e-03  5.9766254142074350e-03  2.7971589608539285e-10  -2.0784019922264634e-03  1.3759222117159722e-01  6.8497084757137908e-03  1.7599650422135946e-02  2.7564214728496915e-03  2.5003613721390218e-03  1.1250861312163264e-01  1.6823342816201597e-10  7.6235117113232630e-11  1.2412470987243406e-01  4.5901662312034120e-03  7.8170798646104156e-03  6.4396586911537790e-04  1.4537787542345974e-02  1.3522418161503709e-02  1.2777453890472329e-02  -1.2195881483713476e-04  4.9918898765583730e-03  2.1961794683697921e-03  1.6168998999133725e-03  7.4934872771903038e-03  1.1905694046038561e-03  2.2378158614577161e-03  1.9904464772793891e-03  7.4780439191070676e-03  2.2066647795970619e-03  3.2685144743621933e-03  2.5607029011122566e-03  6.5102203637998545e-03  1.0962163863388361e-01  1.6643388696919773e-03  9.6298596467388586e-02  -4.4144044216889037e-03  -5.4683122598723696e-03  2.3753244376894496e-03  -1.0241083608236669e-02  4.0297690183577059e-03  1.0836419882302616e-02  3.5321287816243371e-02  4.3825748527225464e-03  8.7274573278613762e-03  3.8533150304495413e-03  1.2404693282720222e-01  1.0758303683100665e-01  1.1667278510973829e-01  1.0263217576566543e-01  1.1032382442810737e-01  1.0657122072353988e-01  6.3202707986953557e-03  9.2238570003583292e-02  9.2295059729665063e-02  9.3303266294004539e-02  5.5939043854135746e-03  1.2204602533095379e-03  -1.7510588523053582e-03  8.1297699560724376e-04  9.2340295496755164e-03  2.2559784137635127e-03  8.3187800235649298e-02  7.7931331872093017e-03  1.2774537191735136e-01  1.3257057288395410e-01  1.9646303405609160e-03  7.3879248032475723e-04  9.2928284998930993e-02  5.1384188282909173e-03  2.7357861511210562e-03  8.9674429146640880e-02  8.4861425607416135e-02  8.6257265488533560e-02  4.8811671430904635e-04  1.3494243197701658e-03  1.6307525085475505e-03  -1.5757042238431627e-04  -1.9533103301867054e-03  7.5302941741392073e-03  1.0440687420159311e-02  5.1716862005143195e-03  3.9477545734067102e-02  1.4110312225974556e-01  1.0804092924519440e-01  2.5400030437759823e-03  5.7462710803039977e-03  -5.4238467738612055e-05  8.9919370724894546e-02  9.1837305532788724e-02  1.1175965610502087e-03  1.1200849411500223e-02  7.3553928903770200e-03  7.7849832948549830e-03  -3.3928014445372542e-03  6.5699847078473216e-03  6.2453646344907913e-03  5.2301421463573250e-04  5.3071513251291467e-04  1.3093165535597365e-01  1.3372352290115214e-01  1.0832766995232654e-01  1.1406326478043773e-01  -1.2817500862842396e-03  -6.3154790473355076e-04  7.3391277986200572e-03  5.0929988108099023e-03  4.2301351263958403e-03  8.9497750544372492e-02  8.2175469219882183e-02  1.0156698751903627e-01  9.1741365974058603e-03  3.3419519642704991e-03  2.7975712554732953e-03  1.3803149287674665e-01  -8.6669861166298285e-06  5.0310681113496323e-03  6.1694457771867542e-03  7.0569865800615139e-03  1.0985694966970716e-01  1.8514003385203055e-03  9.7443933477948053e-02  8.7516827499417901e-02  8.2059711778848521e-03  1.8638792609196513e-03  9.0243843984915431e-02  1.3704516939322656e-03  1.1587535299926033e-02  1.2892026615225381e-03  1.0336908348793619e-01  7.7736274111756846e-03  -1.0101575710792848e-03  1.0843165992564036e-01  1.0185800927670434e-01  7.8049559282628064e-02  -1.9339043814522710e-03  -1.1849857623911959e-03  -8.3427176540757980e-04  -4.4784904496350504e-03  5.0630528450194324e-04  1.2839700631480444e-01  1.9657307754119826e-03  8.0578893747997329e-02  9.6795307185271726e-02  8.5782122737333363e-04  -3.7687948823684862e-03  2.7000955776639757e-03  5.4186830054869600e-02  4.0947822567311025e-03  9.7113610124507241e-02  4.3477774652054789e-03  3.9335526335653745e-03  3.4680752870413279e-03  8.7792954880297897e-02  9.9148656198029001e-03  -1.1778108649759236e-03  6.1859901396378193e-03  -4.2247827310588296e-03  -2.4322375322800914e-03  6.8647068353736053e-03  7.0384368109960242e-03  8.6256135419449750e-02  1.1571337223356712e-01  2.1383146851948784e-03  1.1235854194232254e-02  8.8336695954183503e-02  2.5187091163954142e-03  1.2473973045689149e-01  5.3372066407825977e-03  -5.7266905730285803e-04  -3.2491022139497340e-03  2.4148598179328132e-02  9.2264909863850417e-03  -1.0014772550714510e-02  2.1498035314573673e-03  6.8220857934179297e-03  8.0486064673990481e-03  1.0851237268742228e-01  2.2407389636996118e-03  1.9655529765105822e-03  2.9127561202143253e-03  1.7373387110364942e-04  9.6897225140837196e-03  -3.2191538424056905e-03  -1.1405550323796449e-03  -2.0453351889063399e-03  -3.6209498149448902e-04  5.8723297940086270e-03  6.3818175369818085e-03  5.9666184208637101e-03  1.1216053304762283e-02  1.3458290299282454e-02  1.4601364975168651e-02  6.6062780819736060e-03  1.1276896858924730e-02  2.9155506280661974e-03  8.4083744371428737e-02  7.9221325828521694e-03  2.6091813008511278e-03  7.6540960510046189e-03  7.0210380065315161e-03  7.4055964027264288e-05  -7.7853516489236768e-04  7.4103251596832056e-03  7.8283696806846267e-03  7.6576403920070391e-03  8.1205489315525237e-02  8.4166048195667781e-02  1.9338346309626029e-03  4.7859351588522446e-03  8.8446112698633034e-02  1.7831356953123643e-03  2.2487661656401758e-03  1.3852587825528145e-02  1.1911108407678590e-03  3.1257828822488462e-03  -9.2774332519842827e-04  1.0768481790752640e-03  4.7646646954836199e-04  5.6961207789841695e-03  9.2554491758008867e-03  -4.0757333419894435e-03  -4.3151478207914904e-03  -2.4751547376201974e-03  -9.3086131180766113e-04  1.3292035093893867e-01  1.0939704357425813e-01  1.3416831477317138e-02  3.5607168118712662e-03  1.0388819459333473e-01  -4.2552612437877042e-03  4.5416214835462408e-04  1.0322303912737136e-03  3.1545439049268514e-03  1.1950655929867393e-03  1.7474223661567282e-03  4.3682416107634044e-03  5.1226052543629505e-03  -1.9222631935370312e-03  2.5343810703920737e-03  -6.7122287650139114e-03  2.0715705542896694e-02  -2.4356941390127141e-03  1.4172300030099894e-03  -6.6690056873102441e-04  2.7798756474908424e-03  2.6437447630743996e-03  2.0958941917544934e-03  3.0748291035966662e-03  3.9479210986694060e-03  3.0322538334284846e-03  9.4656535586756255e-02  1.0408200848319889e-01  9.3964652830076847e-03  1.0105736154073681e-03  1.9170671695490106e-03  4.4511312869831678e-03  -5.5272903190625930e-03  1.0037466711824141e-02  -1.7540044481246522e-04  5.2360052008812276e-03  6.8349893705340718e-03  2.6747057894954307e-03  2.2134501256460019e-03  -5.7900202083235892e-03  3.1398174554147047e-03  1.6762517113557793e-03  3.1257629988393752e-03  1.0040664058378787e-01  1.0646161238969970e-01  3.0274788177730482e-03  1.4989089876988075e-02  4.4374010012610449e-04  1.3229613113575065e-03  4.5693086444444364e-03  3.9613947312939552e-04  1.3539574024762696e-02  7.1795740927990855e-03  5.9627429937234378e-03  2.9071580409961058e-03  5.6452844645190322e-03  2.0368413912547228e-03  5.4168587939340341e-03  4.5082891944339876e-04  1.0766393996648742e-01  7.5849733712268219e-02  1.0480589225390190e-01  9.7064975021418629e-02  1.1816604441037497e-01  1.0852072191469811e-01  1.0495047665724044e-01  1.0848912134926131e-01  1.3725100119863409e-03  1.5286397276676269e-03  5.9383204253908438e-02  1.4684777196579601e-02  2.2025502948745091e-03  7.3189573909249609e-03  2.6513692696157132e-03  7.6817932742118027e-03  3.0756363645239831e-03  1.3255678832293710e-02  -3.2023746528481605e-03  2.2060530859360525e-03  3.1678723895306772e-03  -1.9647479687665164e-03  6.4178437979407650e-03  9.1618019985221524e-02  7.1744442705352962e-02  5.0204478994472938e-02  -2.4737456773730720e-03  2.4350548528940131e-03  1.2550510518468258e-01  1.1549756641026985e-02  -1.6609140910112290e-03  2.0837420426067141e-03  2.8920473922074041e-02  9.0491603959708622e-02  4.5966440373154064e-03  2.5265970052201553e-03  8.2033362167617752e-02  2.9064320612576535e-03  7.8450596577902629e-03  7.4945573556737819e-03  3.7201027565229327e-03  6.2211795852789211e-03  5.7945233674309956e-03  6.5546368703332525e-03  4.0582290197929364e-03  1.4711423232849164e-03  6.4109447637579545e-03  4.7261178780392725e-03  6.9541501186455076e-03  7.0203958405537694e-03  3.6060834482085770e-03  7.3428407989063263e-03  8.0473653668514666e-03  1.7796057914897308e-03  1.4532026982608216e-03  1.0134435263894438e-01  6.7946147095494708e-02  1.0262495149304192e-03  -1.0840585872572094e-03  9.8070504923789253e-03  1.6606152966060933e-03  3.5740465956549867e-03  3.6757720781990791e-03  1.4898331824411547e-03  -5.7678287242684491e-03  2.0970353962638500e-03  5.2633103115262295e-03  1.0278215027162813e-01  4.8557144652346092e-03  6.6581017599880617e-03  4.6673103877289818e-03  3.0574680848855246e-03  1.0751912723915272e-01  4.1229250991432444e-04  7.7008514337867004e-04  8.3905780295720628e-03  8.4730778178284324e-02  -2.1216060619530866e-02  8.3129908625380750e-03  7.2115318540496940e-03  3.8626582572579998e-03  1.2795855681399590e-01  7.7311275628466434e-03  -2.4372440139954761e-03  7.6265443737144750e-03  2.0738524206010281e-03  1.0685595115410423e-01  1.1359688363363503e-01  8.6362936148009616e-03  1.4158374465658501e-02  1.3211274343793386e-01  1.0799334022389136e-01  4.3277906594190599e-03  2.4833395051371788e-03  3.4123520494883366e-03  4.3502666542944331e-03  3.3177038422443025e-03  8.7988423063210235e-03  5.0763875626019085e-03  2.4026318548805159e-03  5.9710179114018857e-03  1.1305201719796805e-01  1.0006481529070171e-01  -2.0518752847325655e-03  4.0712281866879026e-03  2.1335313226179230e-03  3.0927533558637799e-04  6.9441466769629675e-03  1.1258237871365035e-02  9.7567557918944309e-03  5.3679013346557879e-03  4.7959041672453635e-03  1.3832472416457494e-03  1.0620755752305205e-02  2.9690478014120030e-03  1.5804243799851120e-01  1.0821293034158265e-01  8.8808681847530324e-03  3.8455411019729952e-03  -5.4181708984814584e-03  1.0167739636701728e-01  1.4986698318584808e-03  7.7900895841502378e-03  1.0970182290254954e-01  8.3824956805217996e-02  2.8234100621155455e-03  1.1020070762845176e-01  8.9173396395320265e-02  3.0391298409642607e-03  -9.0788316177243256e-03  1.5729922622432887e-02  5.0847514263442098e-02  1.0799919478748192e-02  4.7948409809977499e-03  -1.2070520984308051e-03  1.2891567815617750e-03  1.2082478872924828e-01  4.7203889487187952e-03  2.6058820538467429e-03  7.3928252901474803e-03  4.2315605254088532e-03  1.6823342816201597e-10  9.0513512413897282e-02  2.2993127396131927e-03  2.7657191659144257e-03  -3.1554496451154123e-03  2.7077002038702093e-03  7.2119476940346429e-03  1.0990571141349516e-01  1.2496032169971713e-01  4.5677967268389729e-04  1.7715870979232002e-03  8.6192901786944290e-02  9.9516859703056626e-02  1.2221524519432483e-01  3.9794556518728836e-03  7.4764620253246492e-03  7.8602299649167644e-03  7.3517389153963299e-03  8.2456157435157589e-03  1.2557780864029979e-02  4.3641472533220193e-03  1.3434052723756331e-03  1.1395971033909934e-01  4.4604105771378052e-03  6.4793993401198128e-03  2.7673922275343326e-03  4.7003765724546204e-02  9.0740003882072887e-02  8.2590480930589308e-02  4.2060903894193006e-03  1.1241441859598642e-01  1.5143915461911968e-02  6.8130377949719998e-03  -4.3264417705751916e-03  -3.4150366083891492e-03  -8.5970403766451764e-04  -3.1145065980961672e-03  1.9192011051105221e-10  1.3417931716164189e-01  8.8012825579982690e-02  1.7639564985997404e-03  2.5011925942184051e-03  1.7868724087218184e-03  1.8186352693111002e-03  5.9539918361396337e-03  1.0264687835619950e-01  9.3365475672494314e-02  1.6627851375725620e-02  3.3590475424358926e-03  6.4310040424666037e-02  -3.3855612946064777e-03  2.5257484048815133e-03  9.9364294379796301e-03  7.3302838930741068e-03  3.1338253784996307e-02  8.0176047209077478e-03  5.0401942200497879e-03  5.7281357664152955e-03  8.2640955622522122e-04  9.0783141849150859e-04  3.7864263378621860e-04  8.0505099220366166e-02  5.3788209455548325e-02  4.2769547060399638e-03  2.7941985313841410e-03  -5.2621377082809999e-03  2.2055017030480997e-03  1.3980570254843316e-02  5.8743129244689029e-03  5.3820231191402702e-03  1.1678207791203815e-01  8.0290046841412690e-03  9.0165013949896205e-06  -5.0003036641687818e-03  1.0829122526900241e-01  8.7529877038087060e-03  8.3977673617825169e-02  -2.6157529179305652e-03  1.0329190821652176e-01  2.0736691669338211e-03  1.2969622391587771e-02  2.2277297055250246e-03  8.9598161977432852e-02  -4.5510407943611314e-04  -2.6811859438941629e-03  1.6823342816201597e-10  3.0441335557725674e-03  1.7263967279131207e-03  7.7922369597921027e-03  7.5828423277991544e-03  9.0605138375361244e-02  8.8339500235806834e-02  3.5813314471561187e-03  4.2995282150528740e-04  3.3334457144389108e-03  1.4338875359251266e-03  8.2290823374263650e-03  7.9118523730367686e-03  7.9209162859327446e-03  7.4235392604051154e-02  2.7616021632507590e-03  -1.8517778585743275e-03  4.4500850357542974e-03  7.5410801553106432e-03  3.5901569571709221e-03  2.3364976394631858e-03  2.8062528675193176e-03  4.9750274383549720e-03  5.6044296946092852e-03  3.5328313950036016e-03  3.3741311091027839e-03  1.0056553952914661e-01  1.1045644821029013e-01  6.2907525966331267e-03  1.1730981461347738e-01  1.0624794395462785e-01  5.6179163573880772e-03  -1.2673365914663917e-03  -3.1571251683974650e-03  -2.2030196489779899e-03  2.3357265378194242e-03  -2.5980732045401004e-04  6.0894076713368574e-03  7.7936428939956698e-02  4.1432087448165355e-03  1.4669293639586176e-03  -3.3077704462144901e-03  8.1579658939868724e-02  -5.2153215667838230e-04  6.6521930502180821e-03  5.5181214328870716e-03  1.1963002369385768e-01  1.0844866202088341e-01  7.7218847857327497e-03  1.9411041048201390e-03  1.2676767563453126e-02  7.9310710588086954e-03  1.4142563766523496e-02  1.0814935282963303e-01  5.7908015618501618e-03  9.3158162624392263e-02  7.9806737903684432e-03  7.0039031036587360e-02  8.7787514726671051e-04  5.1458364229409670e-03  6.7471134374335606e-03  1.0746850114065931e-01  1.9291753784149116e-03  6.7325169136001487e-03  6.9533597133979034e-03  7.33