<?xml version="1.0"?>
<VTKFile type="UnstructuredGrid"  version="0.1"  >
<UnstructuredGrid>
<Piece  NumberOfPoints="1404" NumberOfCells="2604">
<Points>
<DataArray  type="Float64"  NumberOfComponents="3"  format="ascii">0 0.41 0  0 0 0  2.2 0 0  2.2 0.41 0  0.2353553390593274 0.2353553390593274 0  0.25 0.2 0  0.2353553390593274 0.1646446609406726 0  0.2 0.15 0  0.1646446609406726 0.1646446609406726 0  0.15 0.2 0  0.1646446609406726 0.2353553390593274 0  0.2 0.25 0  0.6923879532511287 0.188268343236509 0  0.7 0.15 0  0.6923879532511287 0.1117316567634909 0  0.6707106781186547 0.07928932188134523 0  0.6382683432365089 0.05761204674887133 0  0.6 0.04999999999999999 0  0.5617316567634909 0.05761204674887134 0  0.5292893218813453 0.07928932188134524 0  0.5076120467488713 0.111731656763491 0  0.5 0.15 0  0.5076120467488713 0.188268343236509 0  0.5292893218813453 0.2207106781186547 0  0.561731656763491 0.2423879532511287 0  0.6 0.25 0  0.6382683432365089 0.2423879532511287 0  0.6707106781186547 0.2207106781186547 0  1.1 0 0  0 0.205 0  1.1 0.41 0  0.55 0 0  0.55 0.41 0  0.275 0 0  0.8250000000000001 0 0  0.275 0.41 0  0.8250000000000001 0.41 0  0.6875 0 0  0.61875 0 0  1.65 0.41 0  1.65 0 0  1.375 0 0  1.375 0.41 0  1.925 0 0  1.925 0.41 0  1.5125 0.205 0  1.7875 0.205 0  0.9625000000000001 0.205 0  1.2375 0.205 0  2.2 0.205 0  1.99375 0.2152743902439024 0  0.4125 0.41 0  2.0625 0 0  2.0625 0.41 0  2.2 0.3075 0  1.7875 0.41 0  1.375 0.1486128048780488 0  1.5125 0 0  1.7875 0 0  1.5125 0.41 0  0.9625000000000001 0.41 0  0.4125 0 0  0.1375 0 0  0.1375 0.41 0  0.6875 0.41 0  0.9625000000000001 0 0  1.2375 0 0  1.1 0.1486128048780488 0  1.2375 0.41 0  1.65 0.1486128048780487 0  0.823495464168302 0.2603780552348366 0  0.3738707794507017 0.2720196349488618 0  0.3662291281331582 0.1311456406657909 0  1.676715909090909 0.2793064024390244 0  1.126715909090909 0.2793064024390244 0  1.348284090909091 0.2793064024390244 0  0.8287581077665108 0.1302150898054257 0  1.894702181800738 0.1282910975492754 0  2.092797818199262 0.1282910975492754 0  1.85625 0.3075 0  0 0.3075 0  0 0.1025 0  2.099172119769978 0.25625 0  0.4752414543992246 0.3180372603390748 0  1.99375 0.08395950269330846 0  1.459960956013612 0.3075 0  1.569025960719943 0.2986889805672169 0  1.03125 0.3278689922742084 0  1.959375 0.3126371951219512 0  1.749222215368287 0.1025 0  1.275777784631713 0.1025 0  0.9228016959331474 0.3075 0  1.000777784631713 0.1025 0  2.2 0.1025 0  1.225938124459196 0.3075 0  1.550777784631713 0.1025 0  1.44375 0.07430640243902442 0  1.16875 0.07430640243902439 0  0.7562500000000001 0.3358727844323386 0  0.89375 0 0  1.899250267340833 0.2229966846119207 0  0.61875 0.41 0  1.766482954545455 0.2934032012195123 0  1.046078563095834 0.2389031808701145 0  1.421109702350723 0.2261157654379721 0  0.07567171807980319 0.25625 0  0.2511897295290552 0.3235829392832554 0  0.07655002503762308 0.1488653460959645 0  0.1377245246847496 0.3206030474919778 0  0.6694099692696568 0.3242771941727899 0  0.9168971191497528 0.1295727156104653 0  0.7562500000000001 0 0  2.118919042110979 0.3422084711244843 0  2.13125 0 0  0.06875000000000001 0 0  1.30625 0.41 0  1.597888256393107 0.2173787389261347 0  0.34375 0.41 0  0.2493272016354703 0.08091360081773515 0  0.5588896233436766 0.3264056208677571 0  1.829299675393195 0.07400700849299596 0  0.1334079128307869 0.08523463035786674 0  1.71875 0.41 0  0.06875000000000001 0.41 0  1.16875 0.41 0  2.038220665644273 0.332420740103091 0  0.8810647413215221 0.2027360103977071 0  0.34375 0 0  0.7453891198966415 0.2471459041008237 0  0.42112093004955 0.1988123139090554 0  0.8314023090855964 0.3351170841770613 0  0.89375 0.41 0  0.7906250000000001 0.06615386481594063 0  1.452769549894695 0.1548122580621249 0  1.369219062229598 0.07430640243902442 0  1.30625 0 0  1.07420695807087 0.07430640243902439 0  1.720943423819132 0.1714577452753128 0  1.157188124459196 0.205 0  1.304056576180868 0.1714577452753128 0  1.67579304192913 0.07430640243902437 0  1.209670467133757 0.136210026696477 0  0.4312800784902823 0.08036147352247747 0  0.8723959680194693 0.07066860609690805 0  1.025335513626278 0.1700681449722324 0  0.7945632284247136 0.1940204203251442 0  0.378125 0.3452261501101892 0  0.3307109909790086 0.2037165635083759 0  0.3009701032039409 0.2702970083403109 0  0.20625 0.41 0  1.58125 0 0  0.4812500000000001 0 0  0.9838963872396855 0.2722244191167347 0  0.06772484939107212 0.3260067317374387 0  0.20625 0 0  1.58125 0.41 0  1.631724228912893 0.3381867502687533 0  1.825608881788174 0.14499488549201 0  1.85625 0 0  1.44375 0 0  1.44375 0.41 0  1.85625 0.41 0  2.13125 0.41 0  0.7562500000000001 0.41 0  0.4812500000000001 0.41 0  1.16875 0 0  1.03125 0.41 0  1.03125 0 0  1.71875 0 0  1.99375 0 0  1.99375 0.41 0  0.9408708167433545 0.0651989315768642 0  1.340625 0.3489494290853124 0  1.134375 0.3489494290853123 0  1.700180620188976 0.3438659752031281 0  0.29668452290037 0.1318471691375986 0  0.3175441051360096 0.06496934809856265 0  0.06509151636162461 0.08140814015999148 0  2.135782184673599 0.07126652247502523 0  1.668441847249787 0.2129203728327609 0  1.295782514339747 0.2378437748815763 0  1.409375 0.3520314716057996 0  2.129248544730567 0.1906135162504124 0  2.060771381434487 0.1989445750470348 0  2.013252586573865 0.1496169464686054 0  1.942766402200229 0.1734448904596831 0  1.895522487186454 0.06076163953489683 0  2.069553871656643 0.06605731020975725 0  0.4670911801404742 0.2498408582391372 0  0.7622743084658112 0.1264100838268133 0  1.274680914880868 0.3520219391081363 0  0.3148669572599245 0.3331753056385887 0  1.614713220494657 0.09473434380863296 0  1.72990325744076 0.2380068107952482 0  1.356580098625191 0.2120393231351682 0  2.034370752044885 0.2668681600792073 0  1.51768709249349 0.3426260931494756 0  1.561883724969884 0.1650446847858835 0  1.197344062229598 0.2523725417393646 0  1.804085235518364 0.3468178408964637 0  1.817887819205233 0.2589243285818559 0  1.905897727272727 0.3485060975609756 0  0.7296439733931823 0.06337466644369745 0  0.4250935971865949 0.1394919578475796 0  0.3773030136511669 0.05130372097998036 0  1.192836486056382 0.3562350748565544 0  1.1029124365364 0.226143510831178 0  1.28257088594801 0.2944411014911587 0  0.1905185804731426 0.06029880676029167 0  1.474860187679412 0.2504218616229368 0  1.406767003493824 0.2829282258560709 0  0.5209826960981064 0.2830664557824064 0  0.5131119502780163 0.3617405848213254 0  0.1948220106098172 0.3081993407644811 0  1.845656689180403 0.1998310418452388 0  2.144958525570388 0.2909790873294231 0  2.2 0.15375 0  0.8833025251326762 0.2625402923007629 0  0.171875 0.3653875762360952 0  1.57794966442982 0.3540357145964566 0  0.446875 0.366068291212731 0  0.4272051715206439 0.2891929346190664 0  1.508991196088596 0.1421783375065625 0  1.50436820029908 0.06143401634903343 0  1.223857000523521 0.08235548624535324 0  0.6137904613287555 0.3066826366281556 0  1.153316824384777 0.1289850171317838 0  0.9751573703656133 0.327632618473408 0  2.148922302309752 0.1258841779285271 0  0.9281250000000001 0.3643758685795699 0  1.621993280276081 0.2841214267927899 0  1.550118654119087 0.2461998729100966 0  1.327182649291491 0.1216967252533594 0  0.9939955742738924 0.04663549843168518 0  1.753125 0.04556020050186112 0  1.271875 0.04556020050186116 0  0.9734326767716519 0.1506854560854393 0  0.103125 0.3675775577080512 0  1.94956388244759 0.1180512551534177 0  1.949997712993411 0.04965831614304109 0  0.717433898748555 0.295596016333797 0  1.771961817615021 0.1530278789497521 0  1.909246823951428 0.2812757146784527 0  0 0.35875 0  1.050632804931928 0.1226269704412814 0  0.05695108326502596 0.2024009637347154 0  1.948575539857022 0.2445328248721197 0  1.697271520964565 0.1233917627620729 0  1.065625 0.3689344961371042 0  1.085849084308977 0.3170853572226867 0  0.1015495998772944 0.04226029099983852 0  1.577403511714593 0.05463601888079143 0  1.751571320346033 0.3651102912045228 0  2.2 0.35875 0  0.7441773632462837 0.1786786606458751 0  0 0.05125 0  1.466879772203159 0.3611261772912453 0  0.6282230348858767 0.3577675483994025 0  1.990280163552011 0.3564754268533217 0  1.17471064520912 0.2990917256188288 0  0 0.25625 0  2.2 0.25625 0  2.2 0.05125 0  0 0.15375 0  1.853978576207987 0.35875 0  1.515638456102889 0.2882700110184686 0  2.150453692751374 0.2387066338105111 0  1.323782677156475 0.04897634338873398 0  1.409375 0.03715320121951221 0  1.406484531114799 0.1087852750766809 0  1.134375 0.03715320121951219 0  0.721875 0.3729363922161693 0  0.7941695928236929 0.3696489254637395 0  0.7934827162619036 0.3013409431456604 0  1.627401732573545 0.04552157221025036 0  0.9352049974617431 0.2507047965699472 0  0.8763260682738339 0.3611103317460093 0  2.045405893604797 0.1105340662939892 0  1.255408269734577 0.1577307500159216 0  2.028125 0.03707597992059326 0  1.003030137506755 0.3689344961371042 0  1.248258025468107 0.2565907092181813 0  1.203125 0.03661323374043041 0  0.4800125512335631 0.0549472816999725 0  2.072662025974815 0.2975086504196739 0  0.240625 0.3729825336867542 0  1.113252391110535 0.10238286244357 0  1.071052763974265 0.1885202618768825 0  0.8738809401657862 0.3106483608284829 0  0.6786819423003397 0.2677558482644021 0  1.887722846421017 0.1760882698830035 0  1.472640588990488 0.1118278026240017 0  0.5843750000000001 0.41 0  1.865937103925594 0.2604137786483804 0  1.463913572748262 0.2030442564990043 0  1.376426316059077 0.3186741374914345 0  0.1038643885363755 0.2162701735320032 0  0.1769473813227781 0.1070849728467114 0  0.458787839809176 0.171541653775316 0  0.240625 0 0  0.04179569703428024 0.2877217852556549 0  0.1258346557601885 0.2699740073054968 0  1.722140693354707 0.282908100935778 0  0.41206179117512 0.2448172567039922 0  0.3702471778075604 0.2265217604228704 0  0.3714881805374215 0.1786967818665642 0  1.77397096061971 0.2481483237422926 0  2.105123889160691 0.03743885948498647 0  1.001138337938679 0.229719337663998 0  1.051242910646791 0.2854826559431138 0  1.395420985247586 0.18
[...]
<PointData  Scalars="f_43"> 
<DataArray  type="Float64"  Name="f_43"  format="ascii">1.0832528597136497e-01  2.0470155286601122e-01  7.7975127205200514e-11  2.8330483645275226e-10  8.0818966906437847e-02  8.3938021153446757e-02  7.0463748583300123e-02  6.6771430251779298e-02  1.3724723288564777e-01  1.3872148239116941e-01  8.9604554934815658e-02  7.1543338652673094e-02  -4.2849916254551149e-03  -3.5761243220540444e-03  -7.6717251461409291e-03  -1.4744397591733330e-02  3.5132452107712861e-02  -6.7030529063583670e-03  -2.1482077034477853e-02  8.7213550825365527e-02  1.5896301659952161e-01  1.5214701490025195e-01  7.4882554788049963e-02  1.6209532340587206e-02  -1.9163306092241403e-02  -3.3648246968214619e-02  -2.4360493648775575e-02  -1.0674521529256914e-02  -1.5387434056151192e-03  1.1845026179729955e-01  2.8144697949726758e-03  5.7553113383232136e-02  4.7777684357089067e-02  1.0154551495411310e-01  -1.5156053607993875e-03  9.3200274861644838e-02  1.2956754353389151e-03  -3.4412173868484408e-03  3.0843133283485211e-03  7.2326200933154018e-03  7.0965252616297363e-03  1.4423332610668926e-02  4.5285562569720994e-03  3.5164223830227467e-03  3.6329794832590852e-03  8.5794148598987048e-03  5.3640046976019531e-03  -8.4279222177000446e-04  4.5174228744295731e-03  1.7006391067421959e-10  2.6843409410832616e-03  8.0720834337804914e-02  1.7701247519075894e-03  1.8028590705238192e-03  2.5087693876904429e-10  5.4964396589690595e-03  1.1822828921266456e-02  1.0055435361979684e-02  5.2311773342175469e-03  7.7396102011514072e-03  2.4222510731234251e-03  1.0661675558877620e-01  1.1422674307337158e-01  1.0732272775304179e-01  8.5234969915711986e-03  -2.7275956186122922e-03  1.1233856677585273e-02  -6.1260407571580890e-03  1.6371390947755380e-03  7.1076165074176936e-03  2.3265133238528019e-03  9.1829216972015654e-02  9.9885689046480916e-02  6.8942863806229415e-03  1.5095086533959393e-03  3.6341327083618019e-03  5.2474543998706476e-04  3.9201677287622567e-03  1.3870372917909794e-03  4.5428736014458924e-03  1.0910471216194767e-01  1.2889920253347428e-01  1.3133000906726210e-03  7.2216598639867513e-02  2.6527049835058511e-03  7.1182017601842361e-03  7.9062308344604280e-03  3.1717528015545665e-03  3.1630629214312142e-03  5.7381618510450967e-03  1.2042218492873570e-02  2.2334365067402514e-03  -3.6746717782154925e-03  1.9527804648706606e-10  1.8135078607877156e-03  8.8941320392093171e-03  1.2153001344974157e-02  1.9432635039415866e-03  2.0656236245444092e-03  -1.5377438238639472e-03  3.9212236112334481e-03  2.3954681716002863e-02  5.7450712265412242e-03  -2.8494705513393728e-03  7.7908762849631967e-03  1.1364526174186393e-01  9.0635465001709076e-02  1.2891507544187594e-01  1.0548942483249682e-01  2.3658196563992769e-03  -6.9954577382661508e-04  -3.1768880151669229e-03  1.0605429547259813e-03  8.8548606500965564e-04  1.2829517876396176e-01  2.3717215509157109e-03  7.7619240572615999e-03  8.7127843059675761e-02  9.5510979260673118e-02  3.4510799436034245e-02  4.7189949511451034e-03  1.2118319587016223e-01  6.4105152977172531e-03  1.0871593134216979e-01  2.2339809899093914e-03  2.1226684991566013e-03  2.2048277814781035e-03  1.0303937731133465e-01  -2.1522700797745355e-03  9.6895260978760542e-02  2.2312856638451173e-03  1.7416059638523712e-03  -5.5713485243846512e-04  1.0260566830163008e-02  1.4287821736647440e-02  1.4819034811759573e-02  -4.0644199336323465e-03  6.1803203331602637e-03  -1.6633835761222125e-03  9.8597590420478869e-03  6.7150180722600197e-03  4.0202290961515045e-03  1.1714776917634317e-01  -5.3304960504890937e-04  -4.7333971733184450e-03  1.1237636171043757e-03  8.5577137728829591e-02  8.9236329711482043e-02  8.7780078147785948e-02  1.0126255448962888e-01  8.3499834744504894e-03  1.0656150701943444e-01  2.0819632085598155e-04  1.0864806593475650e-01  1.0564629940567635e-01  7.7797903447508789e-03  7.4131134133181096e-03  4.8072665563663073e-03  4.3739486009133424e-03  1.2269590279419330e-02  6.6930159647088346e-03  4.5609146437515565e-03  8.9820634812345587e-04  2.5240016801083088e-03  6.8662626566481283e-02  4.3019399528111419e-03  2.8526233351389560e-03  -3.5371421043500699e-03  6.1126165219252907e-03  2.6486058311803503e-03  2.7126188652764863e-03  -1.7498304642323114e-03  2.9183613891189952e-03  3.2511420848222016e-03  6.6361917817658227e-03  8.7802420394303748e-02  1.0168234120588085e-01  1.2884559489029571e-01  8.2926126227409879e-04  6.9180953740394574e-03  4.4225400020887458e-03  5.4636253096149515e-03  9.1704503776471541e-04  1.8069476849779705e-03  2.4128995494898191e-03  3.3272650027099363e-03  3.8870569707468972e-03  1.6812247414145518e-03  8.1601322018105479e-02  -2.0387609005362265e-03  1.6557578988403640e-03  8.9484006042372513e-02  7.6659747214776761e-03  6.1636926763944415e-03  7.5361141838232119e-03  2.1648431454827960e-03  7.7702735829857034e-03  8.3591471526280429e-03  1.9417016607521076e-03  5.2652682294428441e-03  5.0230046473223218e-03  3.8870476223274936e-03  -2.3007431769947110e-03  1.1841607166868266e-01  1.0638544794378213e-01  2.3802620250541482e-03  -3.3035372357618116e-03  1.7054469388872230e-03  1.0660333112338378e-01  7.9619006867620214e-03  5.7825950568309858e-03  4.6322032815290952e-02  5.8576188107081886e-02  9.2948698966984267e-02  4.6006138384041065e-03  7.1663316076465804e-04  -1.8304273714533066e-10  2.4444482515479406e-03  1.0370058702395774e-01  7.7798646926023852e-03  7.5554917470805200e-02  8.7047188181522989e-02  9.4516922360258961e-03  1.0298155521921688e-02  7.9400631471941412e-03  5.9313488884206672e-04  -2.3850973833742686e-03  2.7869752057934198e-03  6.6141080243860533e-04  2.7223963203718638e-03  7.5123669255723197e-03  8.1080594828405045e-03  1.3249542683581916e-02  -2.9297910925057970e-03  5.6712127703368422e-03  1.2937848761425497e-02  -2.5106180010725041e-03  1.0786303367216532e-01  3.2202200268873675e-03  3.2025997362835658e-03  -2.2886105835395916e-03  5.4989279994928355e-03  3.8202962975801410e-03  1.0816220086764904e-01  -5.6341331588835326e-03  1.2110947486136642e-01  3.2836798353633751e-03  6.4328646808440096e-03  3.4473078313598652e-03  3.0775999297203774e-03  1.2301246812463491e-01  8.4543408378948900e-03  5.9746479188970735e-03  2.8330483645275226e-10  -2.0776241294836587e-03  1.3761506645111371e-01  7.0670424041954817e-03  1.7639098628496608e-02  2.7582032517332921e-03  2.4410528374011757e-03  1.1252945321579971e-01  1.7006391067421959e-10  7.7975127205200514e-11  1.2414605599348111e-01  4.5897649891933354e-03  7.9387262664019874e-03  6.4488351875817103e-04  1.4684725056654696e-02  1.3437338096851331e-02  1.2723195686559456e-02  2.8687854725484551e-04  5.0331817908622822e-03  2.2449345098304353e-03  1.6485844131261271e-03  7.4953112283459343e-03  1.0243894200435138e-03  2.2955475118010432e-03  1.9945176635292328e-03  8.0280196508601392e-03  2.2117492655065437e-03  3.3054873246152563e-03  2.6574302846058859e-03  7.1144350815813637e-03  1.0962642415127972e-01  1.6661715449975490e-03  9.6321323540551340e-02  -4.2253114120464081e-03  -5.6663475869494885e-03  2.3726905309194952e-03  -1.0205792276410833e-02  4.0375830938849337e-03  1.0775358338413437e-02  3.5354640210747926e-02  4.3855468769712349e-03  8.8383585583094466e-03  4.2043374393304642e-03  1.2406747410708889e-01  1.0761005250761309e-01  1.1671607478341482e-01  1.0265861552188522e-01  1.1034488176429408e-01  1.0659137044810016e-01  6.3211548910410897e-03  9.2277501956399277e-02  9.2335504977847913e-02  9.3346398961514573e-02  5.5974034719995626e-03  1.2229667653408743e-03  -2.0105754764445281e-03  7.8621748628274267e-04  9.3790940926896261e-03  2.2577864534409024e-03  8.3209508586982076e-02  7.8004114771255606e-03  1.2776733528828582e-01  1.3259516211557551e-01  1.9146443419777116e-03  6.2966124799691467e-04  9.2926050262740256e-02  5.1382885027417523e-03  2.7387634651865633e-03  8.9710341688196929e-02  8.4889410773133736e-02  8.6286044176207374e-02  4.8871090413957663e-04  1.3508207715326919e-03  1.6323041172529612e-03  -3.6064860121368477e-04  -2.1562157734483860e-03  7.5535984588946080e-03  1.0479984317310832e-02  5.1877020152097516e-03  3.9510175299785059e-02  1.4111770808379714e-01  1.0805492134149551e-01  2.5422708448283099e-03  6.0689810813842346e-03  -2.4499691106813722e-05  8.9939456766267842e-02  9.1859178003106431e-02  1.6549579589328989e-03  1.1110765596378585e-02  7.3699539480590135e-03  7.8639408729704891e-03  -3.4360049447039304e-03  6.5867989537556140e-03  6.2633306460618664e-03  5.2402044012928852e-04  5.3132184970111531e-04  1.3095505548737124e-01  1.3374682361227838e-01  1.0834976450023778e-01  1.1408860342904957e-01  -1.3576899345826463e-03  -6.8632129006035967e-04  7.3529791422869417e-03  5.1104566266769111e-03  4.2425754331890343e-03  8.9519910641702546e-02  8.2201304724076676e-02  1.0159387263539402e-01  9.1344815790706420e-03  3.3433168565441575e-03  2.7835833667057015e-03  1.3805402909779851e-01  -7.2426320901951836e-05  5.0297120730397465e-03  6.1681049741829442e-03  7.0641979562744003e-03  1.0988169326811709e-01  1.8547783321923822e-03  9.7474277486022567e-02  8.7536979630109132e-02  8.2444882096538320e-03  1.8212859921639818e-03  9.0274946686658378e-02  1.3727740529729858e-03  1.1491826234791591e-02  1.1222383291403467e-03  1.0339586079837955e-01  7.8050428176366735e-03  -1.0495147624843019e-03  1.0845318050874543e-01  1.0188348955699283e-01  7.8043592307304455e-02  -2.0592076656640607e-03  -1.2871000555218692e-03  -6.7627363235136823e-04  -4.2249461512376086e-03  5.0714428262468923e-04  1.2841999215841418e-01  2.1916199567490234e-03  8.0598237167648634e-02  9.6818481138148310e-02  8.9990592506051321e-04  -3.7428218898131636e-03  2.7067057855522155e-03  5.4216538710929074e-02  4.0951697282939079e-03  9.7134131768817758e-02  4.3616837269826294e-03  3.9454215397067213e-03  3.4772980561455788e-03  8.7841963203585574e-02  9.8628821847442528e-03  -1.1990965992280281e-03  6.2047111482739295e-03  -4.3707895370032127e-03  -2.2389414613983040e-03  6.8770473510925282e-03  7.0514486845908468e-03  8.6283164053679903e-02  1.1573410467214278e-01  2.1400669529143749e-03  1.1241025085359697e-02  8.8358323283775478e-02  2.5594359436105049e-03  1.2476108311995049e-01  5.3552970633498074e-03  -5.3058185345722093e-04  -3.2823585756102521e-03  2.4188595258591208e-02  9.2625535134660698e-03  -9.9773865723233237e-03  2.1545465906516463e-03  7.0949311987786624e-03  8.1562832148595228e-03  1.0853401071423086e-01  2.2498787409857800e-03  2.0212577309414101e-03  2.9637910577250391e-03  1.4081281549921287e-04  9.6337689535879335e-03  -3.1216978719363787e-03  -1.1715347808167900e-03  -2.0856058663631704e-03  -4.1379149270934744e-04  5.8814661353812680e-03  6.7029865664007511e-03  5.9833237840491143e-03  1.1597230096473968e-02  1.3472556663526380e-02  1.4607574016774703e-02  6.6212276062227893e-03  1.1447942744192965e-02  2.9214168344208471e-03  8.4108540586282796e-02  8.5672796773881427e-03  3.2786083494916064e-03  7.6819086210138682e-03  7.0257449153682218e-03  -2.0470657510403361e-05  -9.0348833660767048e-04  7.4300497273171312e-03  7.8448957792304763e-03  7.7645645900158251e-03  8.1224483674648351e-02  8.4184838623254238e-02  1.9090943816369862e-03  4.8021827116768679e-03  8.8468633270644623e-02  1.7855358002441554e-03  2.2517927487285916e-03  1.4091973254806107e-02  1.1925354110885556e-03  3.1701335488580704e-03  -8.9312520045391392e-04  1.0784167180350795e-03  4.7720012394373163e-04  5.6943484642242538e-03  9.2116075838724470e-03  -4.3571778272668308e-03  -4.6014842775016140e-03  -2.7828432657497986e-03  -1.0084231961014743e-03  1.3294299347412575e-01  1.0942260172326189e-01  1.3334698645591652e-02  3.5358927531456761e-03  1.0391448613075605e-01  -4.2966071293671646e-03  4.5497925646050886e-04  1.0341701564768402e-03  3.1592359582783914e-03  1.1963045944223310e-03  2.1004686845861151e-03  4.3798787810143507e-03  5.1335965754841463e-03  -1.9676059855930528e-03  2.5730614556384894e-03  -6.6837925527256049e-03  2.0693145118935045e-02  -2.6084036334879847e-03  1.3120452024572081e-03  -8.0182040910955566e-04  2.7086015693220497e-03  2.5900602567546552e-03  2.2648291096244184e-03  3.3402423945654010e-03  4.2550166091707680e-03  2.9869187112462692e-03  9.4684773755722179e-02  1.0410630700874068e-01  9.4944520009896515e-03  1.0123417634445139e-03  1.8597021757577302e-03  4.4607425896414825e-03  -5.5283315198225210e-03  1.0573736329604960e-02  -3.9658253261526394e-04  5.5768795191189430e-03  6.8372954592531652e-03  2.6793483556624260e-03  2.2171671980123534e-03  -6.0390816671015077e-03  3.1425236677336630e-03  1.7602822074417853e-03  3.0842111601491503e-03  1.0043004712808053e-01  1.0648528414797916e-01  3.5758053408627760e-03  1.5031229273462513e-02  4.4459215204867411e-04  1.3256251024618441e-03  4.6124983597234971e-03  8.4668864359393721e-04  1.3442907518748597e-02  7.3630885819983873e-03  5.9604061031668003e-03  2.8998959975907752e-03  5.6646688156119177e-03  2.0871159167757686e-03  5.7066755795907890e-03  4.5137020932857074e-04  1.0767673687568881e-01  7.5869947258511067e-02  1.0482754587989115e-01  9.7087088969480290e-02  1.1819039180807023e-01  1.0854414962692820e-01  1.0497439097392423e-01  1.0851125620257199e-01  1.4277119028049995e-03  1.5780314718422941e-03  5.9408276073347352e-02  1.4724416025264310e-02  2.1665433407973135e-03  7.9241673488644384e-03  2.6796870059139360e-03  7.6811232287393822e-03  3.0836523110790636e-03  1.3621707873609350e-02  -3.3055452929067731e-03  2.2111038126302863e-03  3.1693753410239060e-03  -2.0874068691449695e-03  6.4174069578862344e-03  9.1662910185972016e-02  7.1774853518306592e-02  5.0244584144555640e-02  -2.1974360315133367e-03  2.4402368418182242e-03  1.2552867524063069e-01  1.1496266878964002e-02  -1.1517777765445850e-03  2.1239916155947319e-03  2.8955719666592071e-02  9.0516960853547629e-02  4.8696688159262118e-03  2.7410342186223085e-03  8.2057911798830041e-02  2.8124608724924682e-03  7.9346388594458920e-03  7.6622186499919068e-03  3.7309604960609585e-03  6.4993241270855104e-03  6.0696778085400985e-03  6.5587490922586235e-03  4.0594531116622274e-03  1.5463651101184537e-03  6.4204046211624871e-03  4.7403638640152925e-03  6.9620968705046155e-03  7.2784252108141151e-03  3.6078728765219625e-03  7.5035745861994855e-03  8.0362840674337351e-03  1.7834882654638728e-03  1.4560841941401407e-03  1.0138555526290977e-01  6.7968414792728860e-02  8.8936506061339129e-04  -1.1238272491923163e-03  9.9640649564577272e-03  1.6108483487170253e-03  3.5796579089616121e-03  3.6835973339499387e-03  1.4913920179956564e-03  -5.8171092407422118e-03  2.0991436788966936e-03  5.2616394066006527e-03  1.0280798739464833e-01  4.8551563857092148e-03  6.6589688232666306e-03  4.6719760348271763e-03  3.0651172288681952e-03  1.0754158372115699e-01  4.1285000655466966e-04  8.0889994740604443e-04  8.3861185243667632e-03  8.4750006739070793e-02  -2.1185790468978009e-02  8.2987385502531416e-03  7.2203284057873454e-03  3.8633782823955906e-03  1.2798001973645426e-01  7.7959287192731442e-03  -2.4697805373125764e-03  7.6642814068510531e-03  1.9504522406821928e-03  1.0687458776559698e-01  1.1361549568224043e-01  8.6628353992759550e-03  1.4248595762694133e-02  1.3211377627204102e-01  1.0801938935341787e-01  4.3277709469835089e-03  2.4571357760305727e-03  3.4138762833139007e-03  4.9187350757670546e-03  3.3347960680005714e-03  8.7678794611009536e-03  5.0818018786295124e-03  2.2976428191409594e-03  5.9730388572550499e-03  1.1307763446296892e-01  1.0009176270862125e-01  -1.6205045869253187e-03  4.3126884071643789e-03  2.1329675683775143e-03  5.6567441084511927e-04  6.9574723386774786e-03  1.1168655995313524e-02  9.7361386620385335e-03  5.3689238485394360e-03  4.7972250826865317e-03  1.3853808835259484e-03  1.0542614598104868e-02  2.9706597430292120e-03  1.5806558641018037e-01  1.0823503226427332e-01  8.8738025616404616e-03  3.8562376225473416e-03  -5.4729810393647771e-03  1.0170049938738632e-01  1.6054326995163135e-03  7.8694942887044209e-03  1.0972159889087145e-01  8.3844282453444205e-02  2.8296583212279176e-03  1.1022176775280366e-01  8.9196230093933945e-02  3.3018885500653728e-03  -9.1327322837917810e-03  1.5697480149059407e-02  5.0875649204156034e-02  1.1333196790830440e-02  4.7939463444220762e-03  -1.4225687797833450e-03  1.2917614094818011e-03  1.2084573597736413e-01  4.7361614709447546e-03  2.8011336532221850e-03  7.4028809671572750e-03  4.2334099513441515e-03  1.7006391067421959e-10  9.0535943631863403e-02  2.2434981993080961e-03  2.6996056536640746e-03  -3.2281085837918538e-03  2.7397082903848520e-03  7.2215769831255284e-03  1.0993624726189474e-01  1.2498082245292695e-01  4.5763411281403421e-04  1.7737174383666049e-03  8.6215211540186396e-02  9.9519159129046547e-02  1.2224325119087201e-01  3.9829373248499765e-03  7.7234739414264522e-03  8.0537416966033788e-03  7.5594492235766348e-03  8.3601165590543591e-03  1.2458570321201982e-02  4.3644807202187219e-03  1.3535159871567407e-03  1.1397999720504612e-01  4.8182502015608033e-03  6.7811858345347966e-03  2.7403777803341445e-03  4.7034772598188376e-02  9.0762365380342200e-02  8.2610507598098390e-02  4.2125179261267645e-03  1.1243525750330845e-01  1.5184745762214716e-02  6.8556103735426741e-03  -4.2880963439628260e-03  -3.5214277901671853e-03  -7.9346793885044157e-04  -2.9599061432921360e-03  1.9527804648706606e-10  1.3420928298446064e-01  8.8033633458495131e-02  1.7617462206483327e-03  2.6265585475355856e-03  1.6972152469055814e-03  1.9063382074294576e-03  5.9731182473588855e-03  1.0267343638535747e-01  9.3411016063971175e-02  1.6665898986564748e-02  3.3297201585410778e-03  6.4333946170811798e-02  -3.5136905201095417e-03  2.5275021459292691e-03  9.9278535106914461e-03  7.3413790614201488e-03  3.1374682561359002e-02  8.0457759002416310e-03  5.0807151577777661e-03  5.7260804894700154e-03  8.2739186867732020e-04  9.0904774041161034e-04  3.7913377088039622e-04  8.0529427962757319e-02  5.3835689738745286e-02  4.2816332179571636e-03  2.7961942788048422e-03  -5.2231603595537576e-03  2.2653154476957567e-03  1.4234381445228898e-02  5.8933152287150986e-03  5.4005403015814964e-03  1.1680275609361591e-01  8.0265977056577405e-03  6.2061801696740662e-04  -4.7847167070470794e-03  1.0831381514094937e-01  8.9701821906418566e-03  8.4004354196554359e-02  -2.6416612395182724e-03  1.0332132352290872e-01  1.9808534660255028e-03  1.3340420405150162e-02  2.2494814084507986e-03  8.9619356127811495e-02  -4.6030838685313940e-04  -2.7992495494016602e-03  1.7006391067421959e-10  3.0704271616479734e-03  1.6740775561030407e-03  7.8399604966939273e-03  7.6113343818504748e-03  9.0631934071021214e-02  8.8374352327539055e-02  3.5903487984995674e-03  4.7036392951135960e-04  3.3406314455142264e-03  1.4359081481083399e-03  8.2992869371109335e-03  7.9638323817968551e-03  7.9573092366605289e-03  7.4255732490445508e-02  3.0671992543036056e-03  -1.8822830204062451e-03  5.1051694263240435e-03  7.5539662114478554e-03  3.5905098918549900e-03  2.3477152594517867e-03  2.8206924418563138e-03  4.9831267898780415e-03  5.6024442451899506e-03  3.5426832594692369e-03  3.3834323718728073e-03  1.0059225576041185e-01  1.1047749814131672e-01  6.2894338695221831e-03  1.1733461044912828e-01  1.0625771545688500e-01  5.6344710230413209e-03  -1.5302126653807247e-03  -3.4238309026028541e-03  -2.3397968941258184e-03  2.2666370934050898e-03  -3.8420325051354329e-04  6.4010931348320380e-03  7.7956081778477251e-02  4.1528167997279463e-03  1.4665971601793100e-03  -3.2573720475878409e-03  8.1597167984478788e-02  -4.8095463286169595e-04  6.6598849977903126e-03  6.2131541078997363e-03  1.1963894892217274e-01  1.0844457530016932e-01  7.7523786797258770e-03  1.8307337583500511e-03  1.2769053123034385e-02  7.9241124429024028e-03  1.4093415541580463e-02  1.0817166205009557e-01  5.8033751014488991e-03  9.3180835212799185e-02  8.0666289938440411e-03  7.0064575943830393e-02  8.7960511467027284e-04  5.1597674233977075e-03  6.7493253373589685e-03  1.0751020003941220e-01  2.1255604308551188e-03  6.9525188426555716e-03  7.1759022148248997e-03  7.49