<?xml version="1.0"?>
<VTKFile type="UnstructuredGrid"  version="0.1"  >
<UnstructuredGrid>
<Piece  NumberOfPoints="1404" NumberOfCells="2604">
<Points>
<DataArray  type="Float64"  NumberOfComponents="3"  format="ascii">0 0.41 0  0 0 0  2.2 0 0  2.2 0.41 0  0.2353553390593274 0.2353553390593274 0  0.25 0.2 0  0.2353553390593274 0.1646446609406726 0  0.2 0.15 0  0.1646446609406726 0.1646446609406726 0  0.15 0.2 0  0.1646446609406726 0.2353553390593274 0  0.2 0.25 0  0.6923879532511287 0.188268343236509 0  0.7 0.15 0  0.6923879532511287 0.1117316567634909 0  0.6707106781186547 0.07928932188134523 0  0.6382683432365089 0.05761204674887133 0  0.6 0.04999999999999999 0  0.5617316567634909 0.05761204674887134 0  0.5292893218813453 0.07928932188134524 0  0.5076120467488713 0.111731656763491 0  0.5 0.15 0  0.5076120467488713 0.188268343236509 0  0.5292893218813453 0.2207106781186547 0  0.561731656763491 0.2423879532511287 0  0.6 0.25 0  0.6382683432365089 0.2423879532511287 0  0.6707106781186547 0.2207106781186547 0  1.1 0 0  0 0.205 0  1.1 0.41 0  0.55 0 0  0.55 0.41 0  0.275 0 0  0.8250000000000001 0 0  0.275 0.41 0  0.8250000000000001 0.41 0  0.6875 0 0  0.61875 0 0  1.65 0.41 0  1.65 0 0  1.375 0 0  1.375 0.41 0  1.925 0 0  1.925 0.41 0  1.5125 0.205 0  1.7875 0.205 0  0.9625000000000001 0.205 0  1.2375 0.205 0  2.2 0.205 0  1.99375 0.2152743902439024 0  0.4125 0.41 0  2.0625 0 0  2.0625 0.41 0  2.2 0.3075 0  1.7875 0.41 0  1.375 0.1486128048780488 0  1.5125 0 0  1.7875 0 0  1.5125 0.41 0  0.9625000000000001 0.41 0  0.4125 0 0  0.1375 0 0  0.1375 0.41 0  0.6875 0.41 0  0.9625000000000001 0 0  1.2375 0 0  1.1 0.1486128048780488 0  1.2375 0.41 0  1.65 0.1486128048780487 0  0.823495464168302 0.2603780552348366 0  0.3738707794507017 0.2720196349488618 0  0.3662291281331582 0.1311456406657909 0  1.676715909090909 0.2793064024390244 0  1.126715909090909 0.2793064024390244 0  1.348284090909091 0.2793064024390244 0  0.8287581077665108 0.1302150898054257 0  1.894702181800738 0.1282910975492754 0  2.092797818199262 0.1282910975492754 0  1.85625 0.3075 0  0 0.3075 0  0 0.1025 0  2.099172119769978 0.25625 0  0.4752414543992246 0.3180372603390748 0  1.99375 0.08395950269330846 0  1.459960956013612 0.3075 0  1.569025960719943 0.2986889805672169 0  1.03125 0.3278689922742084 0  1.959375 0.3126371951219512 0  1.749222215368287 0.1025 0  1.275777784631713 0.1025 0  0.9228016959331474 0.3075 0  1.000777784631713 0.1025 0  2.2 0.1025 0  1.225938124459196 0.3075 0  1.550777784631713 0.1025 0  1.44375 0.07430640243902442 0  1.16875 0.07430640243902439 0  0.7562500000000001 0.3358727844323386 0  0.89375 0 0  1.899250267340833 0.2229966846119207 0  0.61875 0.41 0  1.766482954545455 0.2934032012195123 0  1.046078563095834 0.2389031808701145 0  1.421109702350723 0.2261157654379721 0  0.07567171807980319 0.25625 0  0.2511897295290552 0.3235829392832554 0  0.07655002503762308 0.1488653460959645 0  0.1377245246847496 0.3206030474919778 0  0.6694099692696568 0.3242771941727899 0  0.9168971191497528 0.1295727156104653 0  0.7562500000000001 0 0  2.118919042110979 0.3422084711244843 0  2.13125 0 0  0.06875000000000001 0 0  1.30625 0.41 0  1.597888256393107 0.2173787389261347 0  0.34375 0.41 0  0.2493272016354703 0.08091360081773515 0  0.5588896233436766 0.3264056208677571 0  1.829299675393195 0.07400700849299596 0  0.1334079128307869 0.08523463035786674 0  1.71875 0.41 0  0.06875000000000001 0.41 0  1.16875 0.41 0  2.038220665644273 0.332420740103091 0  0.8810647413215221 0.2027360103977071 0  0.34375 0 0  0.7453891198966415 0.2471459041008237 0  0.42112093004955 0.1988123139090554 0  0.8314023090855964 0.3351170841770613 0  0.89375 0.41 0  0.7906250000000001 0.06615386481594063 0  1.452769549894695 0.1548122580621249 0  1.369219062229598 0.07430640243902442 0  1.30625 0 0  1.07420695807087 0.07430640243902439 0  1.720943423819132 0.1714577452753128 0  1.157188124459196 0.205 0  1.304056576180868 0.1714577452753128 0  1.67579304192913 0.07430640243902437 0  1.209670467133757 0.136210026696477 0  0.4312800784902823 0.08036147352247747 0  0.8723959680194693 0.07066860609690805 0  1.025335513626278 0.1700681449722324 0  0.7945632284247136 0.1940204203251442 0  0.378125 0.3452261501101892 0  0.3307109909790086 0.2037165635083759 0  0.3009701032039409 0.2702970083403109 0  0.20625 0.41 0  1.58125 0 0  0.4812500000000001 0 0  0.9838963872396855 0.2722244191167347 0  0.06772484939107212 0.3260067317374387 0  0.20625 0 0  1.58125 0.41 0  1.631724228912893 0.3381867502687533 0  1.825608881788174 0.14499488549201 0  1.85625 0 0  1.44375 0 0  1.44375 0.41 0  1.85625 0.41 0  2.13125 0.41 0  0.7562500000000001 0.41 0  0.4812500000000001 0.41 0  1.16875 0 0  1.03125 0.41 0  1.03125 0 0  1.71875 0 0  1.99375 0 0  1.99375 0.41 0  0.9408708167433545 0.0651989315768642 0  1.340625 0.3489494290853124 0  1.134375 0.3489494290853123 0  1.700180620188976 0.3438659752031281 0  0.29668452290037 0.1318471691375986 0  0.3175441051360096 0.06496934809856265 0  0.06509151636162461 0.08140814015999148 0  2.135782184673599 0.07126652247502523 0  1.668441847249787 0.2129203728327609 0  1.295782514339747 0.2378437748815763 0  1.409375 0.3520314716057996 0  2.129248544730567 0.1906135162504124 0  2.060771381434487 0.1989445750470348 0  2.013252586573865 0.1496169464686054 0  1.942766402200229 0.1734448904596831 0  1.895522487186454 0.06076163953489683 0  2.069553871656643 0.06605731020975725 0  0.4670911801404742 0.2498408582391372 0  0.7622743084658112 0.1264100838268133 0  1.274680914880868 0.3520219391081363 0  0.3148669572599245 0.3331753056385887 0  1.614713220494657 0.09473434380863296 0  1.72990325744076 0.2380068107952482 0  1.356580098625191 0.2120393231351682 0  2.034370752044885 0.2668681600792073 0  1.51768709249349 0.3426260931494756 0  1.561883724969884 0.1650446847858835 0  1.197344062229598 0.2523725417393646 0  1.804085235518364 0.3468178408964637 0  1.817887819205233 0.2589243285818559 0  1.905897727272727 0.3485060975609756 0  0.7296439733931823 0.06337466644369745 0  0.4250935971865949 0.1394919578475796 0  0.3773030136511669 0.05130372097998036 0  1.192836486056382 0.3562350748565544 0  1.1029124365364 0.226143510831178 0  1.28257088594801 0.2944411014911587 0  0.1905185804731426 0.06029880676029167 0  1.474860187679412 0.2504218616229368 0  1.406767003493824 0.2829282258560709 0  0.5209826960981064 0.2830664557824064 0  0.5131119502780163 0.3617405848213254 0  0.1948220106098172 0.3081993407644811 0  1.845656689180403 0.1998310418452388 0  2.144958525570388 0.2909790873294231 0  2.2 0.15375 0  0.8833025251326762 0.2625402923007629 0  0.171875 0.3653875762360952 0  1.57794966442982 0.3540357145964566 0  0.446875 0.366068291212731 0  0.4272051715206439 0.2891929346190664 0  1.508991196088596 0.1421783375065625 0  1.50436820029908 0.06143401634903343 0  1.223857000523521 0.08235548624535324 0  0.6137904613287555 0.3066826366281556 0  1.153316824384777 0.1289850171317838 0  0.9751573703656133 0.327632618473408 0  2.148922302309752 0.1258841779285271 0  0.9281250000000001 0.3643758685795699 0  1.621993280276081 0.2841214267927899 0  1.550118654119087 0.2461998729100966 0  1.327182649291491 0.1216967252533594 0  0.9939955742738924 0.04663549843168518 0  1.753125 0.04556020050186112 0  1.271875 0.04556020050186116 0  0.9734326767716519 0.1506854560854393 0  0.103125 0.3675775577080512 0  1.94956388244759 0.1180512551534177 0  1.949997712993411 0.04965831614304109 0  0.717433898748555 0.295596016333797 0  1.771961817615021 0.1530278789497521 0  1.909246823951428 0.2812757146784527 0  0 0.35875 0  1.050632804931928 0.1226269704412814 0  0.05695108326502596 0.2024009637347154 0  1.948575539857022 0.2445328248721197 0  1.697271520964565 0.1233917627620729 0  1.065625 0.3689344961371042 0  1.085849084308977 0.3170853572226867 0  0.1015495998772944 0.04226029099983852 0  1.577403511714593 0.05463601888079143 0  1.751571320346033 0.3651102912045228 0  2.2 0.35875 0  0.7441773632462837 0.1786786606458751 0  0 0.05125 0  1.466879772203159 0.3611261772912453 0  0.6282230348858767 0.3577675483994025 0  1.990280163552011 0.3564754268533217 0  1.17471064520912 0.2990917256188288 0  0 0.25625 0  2.2 0.25625 0  2.2 0.05125 0  0 0.15375 0  1.853978576207987 0.35875 0  1.515638456102889 0.2882700110184686 0  2.150453692751374 0.2387066338105111 0  1.323782677156475 0.04897634338873398 0  1.409375 0.03715320121951221 0  1.406484531114799 0.1087852750766809 0  1.134375 0.03715320121951219 0  0.721875 0.3729363922161693 0  0.7941695928236929 0.3696489254637395 0  0.7934827162619036 0.3013409431456604 0  1.627401732573545 0.04552157221025036 0  0.9352049974617431 0.2507047965699472 0  0.8763260682738339 0.3611103317460093 0  2.045405893604797 0.1105340662939892 0  1.255408269734577 0.1577307500159216 0  2.028125 0.03707597992059326 0  1.003030137506755 0.3689344961371042 0  1.248258025468107 0.2565907092181813 0  1.203125 0.03661323374043041 0  0.4800125512335631 0.0549472816999725 0  2.072662025974815 0.2975086504196739 0  0.240625 0.3729825336867542 0  1.113252391110535 0.10238286244357 0  1.071052763974265 0.1885202618768825 0  0.8738809401657862 0.3106483608284829 0  0.6786819423003397 0.2677558482644021 0  1.887722846421017 0.1760882698830035 0  1.472640588990488 0.1118278026240017 0  0.5843750000000001 0.41 0  1.865937103925594 0.2604137786483804 0  1.463913572748262 0.2030442564990043 0  1.376426316059077 0.3186741374914345 0  0.1038643885363755 0.2162701735320032 0  0.1769473813227781 0.1070849728467114 0  0.458787839809176 0.171541653775316 0  0.240625 0 0  0.04179569703428024 0.2877217852556549 0  0.1258346557601885 0.2699740073054968 0  1.722140693354707 0.282908100935778 0  0.41206179117512 0.2448172567039922 0  0.3702471778075604 0.2265217604228704 0  0.3714881805374215 0.1786967818665642 0  1.77397096061971 0.2481483237422926 0  2.105123889160691 0.03743885948498647 0  1.001138337938679 0.229719337663998 0  1.051242910646791 0.2854826559431138 0  1.395420985247586 0.18
[...]
<PointData  Scalars="f_43"> 
<DataArray  type="Float64"  Name="f_43"  format="ascii">1.0793070083341746e-01  2.0433696013843872e-01  4.3708779546262060e-12  -2.9578785268673309e-11  8.0371593072075351e-02  8.3541610975833180e-02  7.0147613712516155e-02  6.6420535609195683e-02  1.3684053820072517e-01  1.3836845261290193e-01  8.9256139194046485e-02  7.1129790352464889e-02  -4.7574259174396919e-03  -3.5363310206323181e-03  -7.3761653349512261e-03  -1.4323521078054246e-02  3.5340480228124665e-02  -6.2958591959864207e-03  -2.1084790382285844e-02  8.7347501768754471e-02  1.5898793495749858e-01  1.5172743104947020e-01  7.3937915238822136e-02  1.5327724515591739e-02  -1.9752612397642012e-02  -3.4070631686019294e-02  -2.4821099984971270e-02  -1.1148863898721871e-02  -1.9833315355957089e-03  1.1807675738387027e-01  2.5835692726763611e-03  5.7704300928585264e-02  4.7348705377444969e-02  1.0120591732106633e-01  -1.0739019137452845e-03  9.2775053469759880e-02  3.0565147222456375e-04  -3.2094737974291349e-03  3.3824067780302107e-03  6.0836032079674219e-03  7.3994819834343074e-03  1.0925169169100735e-02  1.3915904059673978e-03  3.1610668586997707e-03  3.7061508582877955e-03  5.4003106802117049e-03  5.1505392462455829e-03  1.8008941969840024e-03  -1.0273755537463000e-03  -3.0933899897667024e-11  2.5909750369235989e-03  8.0347722540522817e-02  1.6429065122605141e-03  1.7880226843313949e-03  4.4476736052635584e-11  5.6118403125936878e-03  6.8242662730846901e-03  1.1827757560977729e-02  4.7039465436316775e-03  2.9671229851834778e-03  1.2795020502578878e-03  1.0638487192743197e-01  1.1386411933044945e-01  1.0690352685034175e-01  7.8649526830693022e-03  -3.4640551604378050e-04  7.6387864429964386e-04  -1.7038443207994217e-03  2.7798956771917572e-03  6.8806341013523476e-03  1.3123244545610654e-03  9.1334564749379163e-02  9.9450216246594447e-02  6.2043866468081505e-03  1.4820646262341650e-03  2.1109207640575391e-03  9.2415429068027559e-04  3.5743405834872143e-03  1.3085071376238691e-03  4.6520857399097509e-03  1.0871546224209429e-01  1.2853501319567134e-01  1.2762055648977836e-03  7.1804753279788830e-02  2.4362368467565885e-03  1.1162553149654171e-03  4.2191037894824604e-03  2.4094141718296255e-03  3.1830183459105950e-03  5.2867419946814511e-03  6.3729594575359736e-04  2.0010319835826649e-03  -3.5658130185541624e-05  1.6855302159147814e-12  3.2119728539193879e-03  1.0052656627916370e-02  1.2192237499524063e-02  -2.5028278422817686e-03  1.2603739288485247e-03  -2.7068283276868637e-04  3.8186376926189502e-03  2.3415691810641518e-02  5.7869647539726702e-03  8.5227954951626306e-04  3.3922874449821006e-03  1.1326535966024857e-01  9.0208522109135880e-02  1.2854968142914325e-01  1.0508552613174241e-01  1.6935400168185100e-03  9.9266274193185759e-04  -3.0061726026484681e-03  1.0415330469977938e-03  8.3218357254785181e-04  1.2793041577537917e-01  2.1601786376914491e-03  5.9339792037519197e-03  8.6728686413068523e-02  9.5157161046316635e-02  3.3988744446556592e-02  4.2055896377431049e-03  1.2082121857710684e-01  6.1992469268187418e-03  1.0831875456539979e-01  2.8812362792544092e-03  2.1091810081810048e-03  2.3333171838739500e-03  1.0273992189767583e-01  -2.9124122977556149e-03  9.6293059565544112e-02  1.3177158584364332e-03  5.8614911056853773e-04  -3.3319563717868855e-04  8.7354337476752229e-03  9.2077486362774786e-03  5.9475856949998459e-03  -1.3467608667342356e-03  5.8092938813199598e-03  -1.8556562474457024e-03  1.6396300993354897e-03  6.7540534649769921e-03  -3.0758414948499546e-03  1.1694077291921719e-01  2.9561905836833296e-04  3.9672388918910915e-04  3.7452182360840294e-04  8.5176644959422759e-02  8.8783834876942025e-02  8.7333103737520096e-02  1.0082719625269167e-01  9.5762259793319721e-03  1.0644746100146639e-01  1.9566638513027041e-03  1.0825709737280394e-01  1.0529022096894028e-01  4.8791226227445561e-03  5.7423850023371487e-03  4.3991221715816023e-03  3.8877663886006442e-03  1.2866869836620895e-02  1.4946821434928378e-03  4.7001901203527945e-03  8.8171114806378929e-04  1.7224879835000995e-03  6.8287182526058768e-02  -1.8519762293994718e-03  2.0049966427815621e-03  -1.0934614254244426e-03  5.7976178836709556e-03  2.4221866108094258e-03  2.7269406459741628e-03  1.2786409436062909e-04  2.0617896744818780e-03  3.3163773999211120e-03  6.2176265505544627e-03  8.7447869588512778e-02  1.0134522015048507e-01  1.2848320274342589e-01  7.8017176061169415e-04  6.2558084486380458e-03  1.8753616154738384e-03  1.2100084169721411e-03  8.7786626029431165e-04  1.7324262417889591e-03  2.2657116623288126e-03  3.1353955459517686e-03  3.4755573926753330e-03  1.5644890147320759e-03  8.0966410209664594e-02  -1.9507938515264433e-03  2.9989166465085380e-03  8.9059704972659928e-02  8.3004645632344352e-03  5.9363390507065255e-03  3.4660006695288112e-03  2.1232848104619094e-03  2.6576642505472428e-03  7.6002975800086537e-03  5.1667189135870192e-04  5.4021440654493918e-03  5.0369628214904788e-03  3.9777136972011171e-03  -2.0786358195385760e-03  1.1800376686202291e-01  1.0611435048270337e-01  3.4290785765152868e-03  -4.3177817250135392e-04  2.8625959900932113e-03  1.0624255514108412e-01  2.4498826472426054e-03  1.2652395352462521e-03  4.5730353764290022e-02  5.8170726422097592e-02  9.2535710459267964e-02  4.4035874441117799e-03  6.9705000716260141e-04  -7.5612692768106256e-11  2.3094075438841633e-03  1.0327456908021690e-01  4.5307288392717341e-03  7.5178413093438048e-02  8.6568127677155243e-02  9.3169566653540006e-03  1.1915387001037957e-02  -1.6503762710921724e-03  -3.6643854824751289e-05  -3.0743991595254239e-03  2.0760368726945398e-03  6.2786456136488958e-04  1.4620675681472318e-03  5.6290013815096787e-03  4.3247875229515589e-03  4.2968722295542404e-03  -3.5885030903492435e-04  5.2331697465036629e-03  2.3361482573156416e-03  8.4368178228399918e-04  1.0745998524415884e-01  2.9537297908694303e-03  2.8964754800918304e-03  -3.0218642512896557e-03  5.0863400465210986e-03  3.8451289699105527e-03  1.0776781952275162e-01  -6.9355622023527708e-04  1.2073813901157165e-01  3.2268303804424297e-03  6.1651127464742717e-03  2.6977383822379694e-03  2.6308329970328504e-03  1.2264837253310444e-01  9.7946647543439534e-03  5.9599377328801882e-03  -2.9578785268673309e-11  -2.4764050409536629e-03  1.3725140889645976e-01  1.6129209505664720e-03  1.7052145903442041e-02  2.7742605988558518e-03  2.6921481610846431e-03  1.1214782348369479e-01  -3.0933899897667024e-11  4.3708779546262060e-12  1.2377857677481242e-01  4.7275916685865626e-03  2.4889051811904008e-03  6.2256387093127634e-04  6.3924058675563179e-03  1.1865462502186943e-02  1.0185601885605357e-02  -2.0178474959724811e-03  4.3245400460432074e-03  1.3645850951186443e-03  7.0249077867062435e-04  8.1779462641981548e-03  2.3019024167638116e-03  1.1786421287470496e-03  1.8615211158754814e-03  -1.3979863412694729e-03  2.0365030715349358e-03  2.1087037479313544e-03  1.6125143948702327e-03  -1.1428162075030367e-03  1.0953162579017824e-01  1.6369904373794938e-03  9.5887044015343467e-02  -2.2081962335492897e-03  -3.8550946291655559e-04  1.7460157438791966e-03  -1.0734000557028573e-02  3.7938849461646731e-03  1.1177705674941045e-02  3.4875103594337917e-02  4.3940235198485994e-03  5.1880909434219051e-03  1.4525362649053675e-03  1.2369478919563527e-01  1.0724538616684448e-01  1.1617762291292229e-01  1.0230825384632031e-01  1.0995928819766690e-01  1.0620782903038474e-01  6.1358238673060016e-03  9.1684189954322079e-02  9.1785511443533571e-02  9.2823695336017184e-02  5.5363780419008723e-03  1.1422694525967229e-03  1.5097249900482754e-03  1.7428152112227381e-03  5.4774332889655003e-03  2.2531175799143715e-03  8.2782657821604211e-02  7.7979646207209843e-03  1.2740315860863197e-01  1.3222560272078310e-01  1.7704011256931102e-03  1.4786841068975300e-03  9.2924809152212004e-02  5.2560651989128973e-03  2.6945754613942933e-03  8.9298282331188250e-02  8.4533835026630089e-02  8.5852258822626537e-02  4.7664677952126541e-04  1.3316845832131005e-03  1.6160823946058910e-03  1.5822334128329867e-03  4.3571978179599279e-04  5.6102958511399740e-03  9.8498769506395068e-03  4.6883392976541606e-03  3.9037737201661378e-02  1.4094232305713059e-01  1.0786557682686815e-01  2.5270316669569644e-03  2.3961333700032532e-03  -6.4111315260196493e-04  8.9525889374294676e-02  9.1430652687412600e-02  -2.6449361001550206e-03  1.2665895406899599e-02  6.5608612772968264e-03  3.9615365880538798e-03  -9.0850714711332827e-04  6.5153366716499414e-03  6.0632383094397120e-03  4.9316372293460348e-04  5.2026715298536118e-04  1.3059052180277447e-01  1.3338298227566550e-01  1.0795543848225903e-01  1.1372509848502524e-01  -5.7881996440791123e-04  -2.2115506216366094e-04  6.0084756631845569e-03  4.5908491556909429e-03  3.7978181405846070e-03  8.9088233549394921e-02  8.1867102104962369e-02  1.0124810375891651e-01  1.0753262903030405e-02  3.3972573991002375e-03  1.9785959452959961e-03  1.3768255928810558e-01  4.3171930320207852e-04  5.1777236068442888e-03  6.0913722561130659e-03  6.0668323465759644e-03  1.0956615997373728e-01  1.7525951894880819e-03  9.7099195782351294e-02  8.7126790204405946e-02  5.7999845269661654e-03  3.1858327211926260e-03  8.9794336729132146e-02  1.3069407871909803e-03  1.2561565726379904e-02  2.2579332268386361e-03  1.0303893816503097e-01  5.0951185318763546e-03  -7.9035605958017183e-04  1.0806284964579999e-01  1.0156169039100321e-01  7.8112543293152842e-02  -2.1706063806355052e-04  -1.0930527461729325e-05  -3.7239428677234471e-04  -2.4211535941628800e-03  4.8418922661352991e-04  1.2805736765501527e-01  2.4625078886593731e-03  8.0202071024362137e-02  9.6388907192286724e-02  -1.8179679293526768e-04  -4.2508365510066501e-03  2.4717089652008402e-03  5.3774070723686368e-02  4.2043172641175455e-03  9.6739482463757007e-02  3.8808638528820901e-03  3.5212276355071855e-03  3.1417222759694071e-03  8.7150554269865468e-02  1.1042830935267832e-02  8.0696630631453049e-04  5.9202850575968066e-03  -6.4919003016377990e-04  -1.6759081246882732e-03  7.0726856914734267e-03  7.1696927848872750e-03  8.5933020816355496e-02  1.1535727254814891e-01  2.1337495633449799e-03  8.6028104746185153e-03  8.7923389163851895e-02  1.8307155331047573e-03  1.2439401814173560e-01  4.8421166364968791e-03  -1.4296112772389298e-03  -3.1207043102728640e-03  2.3626706814854553e-02  7.3668297215181604e-03  -1.0580159702803602e-02  1.9931153086400954e-03  1.3852812287115379e-03  3.1878358418776526e-03  1.0814224486258112e-01  1.4053998019579342e-03  9.9521714037459005e-04  1.6922750010594637e-03  3.4022573336940302e-05  1.1342207977498138e-02  -1.5786027558681688e-03  -1.0508019057556346e-03  -1.8283786984737193e-03  -1.1245221547568295e-04  5.6052150470461484e-03  4.6690091372210462e-04  5.5775206111285643e-03  1.1192939415904642e-03  7.9585785670711999e-03  9.4109342473112558e-03  6.2624021921743184e-03  4.1708394719493693e-03  2.7290371708134902e-03  8.3660711936173041e-02  -1.8151036197221525e-03  -2.9616504840000919e-03  5.1478953099180274e-03  6.1554718325703434e-03  8.4577224077773538e-04  4.8528330901237437e-04  5.6478707254045274e-03  6.8499369386111559e-03  3.2605703509247567e-03  8.0842663104945964e-02  8.3800449454489542e-02  2.1190126219115903e-03  4.2750474251267391e-03  8.8041306630464611e-02  1.7320253956737274e-03  2.1843065969297760e-03  4.1232120387573387e-03  1.1652632917153367e-03  2.3850537614280450e-03  -1.6887708044821008e-03  1.0397308911306992e-03  4.5808261110915759e-04  5.7786857234390825e-03  1.0838776068196127e-02  5.8830276461758113e-04  5.4185355268841916e-05  1.1370717242895920e-03  -1.7149701984574468e-04  1.3257972078703745e-01  1.0906243036970295e-01  1.1340936916095719e-02  3.0678524002942151e-03  1.0358874823717164e-01  -4.1892387376506754e-03  4.3119440968695052e-04  9.7498910165749893e-04  3.0408548301741503e-03  1.1788258601573892e-03  -1.2816613394847566e-03  3.9727765240129788e-03  4.7978805895476633e-03  -1.7238801836019825e-03  1.6033300904866453e-03  -7.1331912620928800e-03  2.0956993644213523e-02  3.2671959012767568e-05  2.1520946705894228e-03  1.5683256747458711e-03  3.2366194230046327e-03  2.7832461475910258e-03  2.4392538160053793e-03  1.7437369334615468e-03  1.5486287001684209e-03  2.9115405248111674e-03  9.4328856420240068e-02  1.0380639371616712e-01  6.3219809774092859e-03  9.6136609635175921e-04  2.8916265917277367e-03  4.1492787406006782e-03  -1.3701404007605523e-03  4.3663739900539256e-04  1.9911412168407234e-03  1.0158038516991351e-03  6.2550704677734525e-03  2.5428639499251262e-03  2.1113347601261589e-03  -4.7892831617762558e-04  3.1291276563133763e-03  2.5439755569856455e-03  2.9959384513758014e-03  9.9996209854620766e-02  1.0606967551105083e-01  -1.8346717412774270e-03  8.7148703257558455e-03  4.1947161031730427e-04  1.2386483325122653e-03  3.8883567466431509e-03  -2.2021288678015925e-03  1.2395741224122146e-02  2.0852227965910829e-03  5.9779390343138736e-03  2.3229594748408930e-03  5.1992618859517739e-03  9.0514846782496468e-04  1.2709114648462767e-03  4.4040446698906627e-04  1.0749258410454167e-01  7.5500677991711243e-02  1.0455861026086480e-01  9.6653652867551801e-02  1.1782606049871122e-01  1.0813803496055795e-01  1.0454377366028104e-01  1.0811766486073360e-01  3.4499584975486848e-04  6.8738269937152039e-04  5.9015687813016721e-02  1.4124133223505267e-02  2.4512332801640657e-03  -9.6756300977745657e-04  1.6431341255228459e-03  8.4287518775734618e-03  2.7954885644008057e-03  3.1345857040901049e-03  -6.5232216442877300e-04  2.0375652326049677e-03  3.2105811840797750e-03  -1.4647326454261369e-04  6.1497101570390103e-03  9.1021097839206436e-02  7.1251696347770024e-02  4.9506375480205908e-02  -2.0199541864650769e-03  2.2657217309147823e-03  1.2516723369449229e-01  1.0562695927336101e-02  -3.0988841655460440e-03  1.2565294336616148e-03  2.8439103116837696e-02  9.0058238639742022e-02  2.4848125168881277e-03  2.4920986856671839e-03  8.1728261141208958e-02  3.4257310086370902e-03  3.1808468320124986e-03  1.8264521536392796e-03  3.3404316560005408e-03  1.1060822414672871e-03  1.3587278679002964e-03  6.1736702619807852e-03  4.1431803839407956e-03  9.6383343131348708e-04  6.0369357202939783e-03  4.2548192896838134e-03  6.1806438596901441e-03  2.1121667553487739e-03  3.6548355473163029e-03  2.3623561826287770e-03  9.0928887422787735e-03  1.6532209739666245e-03  1.3647291313238191e-03  1.0084725677948878e-01  6.7587768130845799e-02  1.8700116696523563e-03  -8.7524094397662506e-04  4.8585684245585365e-03  3.3590744616464256e-03  3.4299444245212505e-03  3.4221980294155043e-03  1.4693276078216056e-03  -1.5018474449344239e-03  2.0736633636389114e-03  5.3894484546118853e-03  1.0248202877207460e-01  5.0002174975329128e-03  6.2538755098764838e-03  4.6034482600944863e-03  2.7898424991918765e-03  1.0714307688886041e-01  3.9962592435376494e-04  -2.3483553804140049e-04  8.7354956159657812e-03  8.4355816084006482e-02  -2.1702758416141416e-02  9.3889301947740669e-03  7.6389351054748575e-03  3.9558192805989045e-03  1.2761136966217590e-01  4.2581260780936749e-03  -2.3120600219571734e-03  5.0514613783976927e-03  2.4288940929661812e-03  1.0664163045746890e-01  1.1324644108726598e-01  7.0113805852276070e-03  6.5882618724748369e-03  1.3208055350698447e-01  1.0765873028132042e-01  4.4515997589930833e-03  1.8757209039754908e-03  3.4652536924975881e-03  -2.2088357741697775e-03  2.3449710165074330e-03  1.0233544485236305e-02  4.9785218263051680e-03  3.3734723984296389e-03  5.8880427104732310e-03  1.1271648376081377e-01  9.9733886425696042e-02  -2.7571923867824575e-03  5.7252695369924703e-04  2.0886689029553369e-03  -8.9457482918279976e-04  6.4464997373703632e-03  1.2263999848536350e-02  1.0045598908809869e-02  5.4267484605115563e-03  4.8772582931520857e-03  1.3296280031042012e-03  1.2148582776605547e-02  3.0011056805978316e-03  1.5770143589493649e-01  1.0784004828961216e-01  8.9060120195565626e-03  3.4682121671308465e-03  -5.1605348966755503e-03  1.0128345395302012e-01  2.9070297540182972e-03  3.6281719764389669e-03  1.0947436516791251e-01  8.3446075922821217e-02  2.6144690631964371e-03  1.0983650059238487e-01  8.8762449764026780e-02  1.8930124793536413e-03  -8.7475147088839963e-03  1.5965413463316910e-02  5.0451361672520331e-02  2.9312132900900502e-04  4.9362626992537680e-03  9.8930270411786390e-04  1.2084492443790646e-03  1.2047483679373829e-01  4.2210069453626009e-03  2.2480312777028021e-04  7.5335237737828888e-03  4.2930055822594107e-03  -3.0933899897667024e-11  9.0107398805218578e-02  2.1366369003058966e-03  2.4026710550619479e-03  -7.3491881215633642e-04  1.8432571427367554e-03  6.0350188811423766e-03  1.0953488876735715e-01  1.2471150529402737e-01  4.3218979932391975e-04  1.7336525794356037e-03  8.5787606406333039e-02  9.9458504079573323e-02  1.2186223431091235e-01  3.9594955416430155e-03  3.6723997708470158e-03  3.2182384584391439e-03  1.5564529103138302e-03  3.8503622757588788e-03  1.2532520893262726e-02  4.4847210595306284e-03  1.7819240804891460e-03  1.1360138633840755e-01  1.7301038124462457e-03  1.9129631248940538e-03  2.0308107643793784e-03  4.6581854694797926e-02  9.0341499212355778e-02  8.2198736856072860e-02  4.0461521712401600e-03  1.1205348847571318e-01  1.4581696458586681e-02  6.2157048400878134e-03  -4.9094705569412735e-03  1.9927120735072844e-04  3.2403859352309316e-04  -1.2227014997437864e-03  1.6855302159147814e-12  1.3385024298735093e-01  8.7617414690304207e-02  2.8027255632818806e-03  2.2620291542695282e-03  2.0204085484728019e-03  2.6787814798673397e-03  5.6193915287572182e-03  1.0232613580841853e-01  9.2827858190435139e-02  1.6081277338972709e-02  3.0067355894881549e-03  6.3934395098475427e-02  -5.0293167216113228e-04  2.5355152470169936e-03  9.2629862687390405e-03  5.8793346346329616e-03  3.0803135362843299e-02  7.3685147925344769e-03  4.4051454243946141e-03  5.7793499184128983e-03  8.0851809034132767e-04  8.8177104577598527e-04  3.6796519648173566e-04  8.0064077789728350e-02  5.2985192838853695e-02  4.2056032169673430e-03  2.8042866627002649e-03  -5.8557695200135759e-03  1.0575682822746956e-03  4.8098147310763339e-03  5.5241586957901125e-03  4.9077551565593859e-03  1.1642697352392041e-01  8.6184110903970539e-03  -3.3259603738405126e-03  -2.4907600179211414e-03  1.0791580672299532e-01  3.3508808707208792e-03  8.3565183846027152e-02  -2.7377805539372567e-03  1.0295033620271250e-01  3.4658597081111708e-03  2.5278844987934265e-03  1.1632770274080091e-03  8.9197335183943849e-02  -8.9350069763374264e-04  -3.8927403849590709e-04  -3.0933899897667024e-11  2.2391687756429237e-03  2.0821376663621334e-03  4.4252392083483100e-03  5.2613615828322980e-03  9.0137739508099446e-02  8.7794715420672201e-02  3.2661824494190756e-03  -3.2239230703266634e-04  3.0975052335897786e-03  1.3878329077914552e-03  4.4655254335014922e-03  4.2452123932730009e-03  5.2013500018400745e-03  7.3870009684888549e-02  1.9602624981508504e-03  -1.7602009171802167e-03  -2.2235650504011488e-03  7.0883834075261632e-03  2.8388221716191746e-03  2.1905730106155314e-03  2.4048327308611680e-03  4.7622594817294797e-03  5.6911643954516335e-03  3.1849444023671334e-03  3.0473270324449134e-03  1.0023492780859219e-01  1.1009189539831216e-01  6.1345889819665878e-03  1.1696956227802585e-01  1.0610745645360699e-01  5.1788275092482690e-03  1.3897765863036225e-03  3.4415403375130031e-04  -1.0127975613628666e-04  3.1356429557307624e-03  8.6979032367184492e-04  1.0006025429484347e-03  7.7581781681102593e-02  3.8264600793296191e-03  3.1724501317728342e-03  -1.2838585849043464e-03  8.1212801689782510e-02  -1.1808980392054602e-03  6.1587837250760896e-03  -2.5350836569901125e-03  1.1950188934719602e-01  1.0846971129575693e-01  5.0005318406358395e-03  2.3066671059729059e-03  5.9138903310487585e-03  8.9047039068742475e-03  1.0615172116800162e-02  1.0777572633927945e-01  5.4466152328900052e-03  9.2748971770745231e-02  3.3522729488265953e-03  6.9737157376271480e-02  8.2494744997030161e-04  4.7204767411508832e-03  6.1844040892933489e-03  1.0696439168198084e-01  2.5079975983152698e-03  1.7161968852006132e-03  1.3916746053202990e-03  