<?xml version="1.0"?>
<VTKFile type="UnstructuredGrid"  version="0.1"  >
<UnstructuredGrid>
<Piece  NumberOfPoints="1404" NumberOfCells="2604">
<Points>
<DataArray  type="Float64"  NumberOfComponents="3"  format="ascii">0 0.41 0  0 0 0  2.2 0 0  2.2 0.41 0  0.2353553390593274 0.2353553390593274 0  0.25 0.2 0  0.2353553390593274 0.1646446609406726 0  0.2 0.15 0  0.1646446609406726 0.1646446609406726 0  0.15 0.2 0  0.1646446609406726 0.2353553390593274 0  0.2 0.25 0  0.6923879532511287 0.188268343236509 0  0.7 0.15 0  0.6923879532511287 0.1117316567634909 0  0.6707106781186547 0.07928932188134523 0  0.6382683432365089 0.05761204674887133 0  0.6 0.04999999999999999 0  0.5617316567634909 0.05761204674887134 0  0.5292893218813453 0.07928932188134524 0  0.5076120467488713 0.111731656763491 0  0.5 0.15 0  0.5076120467488713 0.188268343236509 0  0.5292893218813453 0.2207106781186547 0  0.561731656763491 0.2423879532511287 0  0.6 0.25 0  0.6382683432365089 0.2423879532511287 0  0.6707106781186547 0.2207106781186547 0  1.1 0 0  0 0.205 0  1.1 0.41 0  0.55 0 0  0.55 0.41 0  0.275 0 0  0.8250000000000001 0 0  0.275 0.41 0  0.8250000000000001 0.41 0  0.6875 0 0  0.61875 0 0  1.65 0.41 0  1.65 0 0  1.375 0 0  1.375 0.41 0  1.925 0 0  1.925 0.41 0  1.5125 0.205 0  1.7875 0.205 0  0.9625000000000001 0.205 0  1.2375 0.205 0  2.2 0.205 0  1.99375 0.2152743902439024 0  0.4125 0.41 0  2.0625 0 0  2.0625 0.41 0  2.2 0.3075 0  1.7875 0.41 0  1.375 0.1486128048780488 0  1.5125 0 0  1.7875 0 0  1.5125 0.41 0  0.9625000000000001 0.41 0  0.4125 0 0  0.1375 0 0  0.1375 0.41 0  0.6875 0.41 0  0.9625000000000001 0 0  1.2375 0 0  1.1 0.1486128048780488 0  1.2375 0.41 0  1.65 0.1486128048780487 0  0.823495464168302 0.2603780552348366 0  0.3738707794507017 0.2720196349488618 0  0.3662291281331582 0.1311456406657909 0  1.676715909090909 0.2793064024390244 0  1.126715909090909 0.2793064024390244 0  1.348284090909091 0.2793064024390244 0  0.8287581077665108 0.1302150898054257 0  1.894702181800738 0.1282910975492754 0  2.092797818199262 0.1282910975492754 0  1.85625 0.3075 0  0 0.3075 0  0 0.1025 0  2.099172119769978 0.25625 0  0.4752414543992246 0.3180372603390748 0  1.99375 0.08395950269330846 0  1.459960956013612 0.3075 0  1.569025960719943 0.2986889805672169 0  1.03125 0.3278689922742084 0  1.959375 0.3126371951219512 0  1.749222215368287 0.1025 0  1.275777784631713 0.1025 0  0.9228016959331474 0.3075 0  1.000777784631713 0.1025 0  2.2 0.1025 0  1.225938124459196 0.3075 0  1.550777784631713 0.1025 0  1.44375 0.07430640243902442 0  1.16875 0.07430640243902439 0  0.7562500000000001 0.3358727844323386 0  0.89375 0 0  1.899250267340833 0.2229966846119207 0  0.61875 0.41 0  1.766482954545455 0.2934032012195123 0  1.046078563095834 0.2389031808701145 0  1.421109702350723 0.2261157654379721 0  0.07567171807980319 0.25625 0  0.2511897295290552 0.3235829392832554 0  0.07655002503762308 0.1488653460959645 0  0.1377245246847496 0.3206030474919778 0  0.6694099692696568 0.3242771941727899 0  0.9168971191497528 0.1295727156104653 0  0.7562500000000001 0 0  2.118919042110979 0.3422084711244843 0  2.13125 0 0  0.06875000000000001 0 0  1.30625 0.41 0  1.597888256393107 0.2173787389261347 0  0.34375 0.41 0  0.2493272016354703 0.08091360081773515 0  0.5588896233436766 0.3264056208677571 0  1.829299675393195 0.07400700849299596 0  0.1334079128307869 0.08523463035786674 0  1.71875 0.41 0  0.06875000000000001 0.41 0  1.16875 0.41 0  2.038220665644273 0.332420740103091 0  0.8810647413215221 0.2027360103977071 0  0.34375 0 0  0.7453891198966415 0.2471459041008237 0  0.42112093004955 0.1988123139090554 0  0.8314023090855964 0.3351170841770613 0  0.89375 0.41 0  0.7906250000000001 0.06615386481594063 0  1.452769549894695 0.1548122580621249 0  1.369219062229598 0.07430640243902442 0  1.30625 0 0  1.07420695807087 0.07430640243902439 0  1.720943423819132 0.1714577452753128 0  1.157188124459196 0.205 0  1.304056576180868 0.1714577452753128 0  1.67579304192913 0.07430640243902437 0  1.209670467133757 0.136210026696477 0  0.4312800784902823 0.08036147352247747 0  0.8723959680194693 0.07066860609690805 0  1.025335513626278 0.1700681449722324 0  0.7945632284247136 0.1940204203251442 0  0.378125 0.3452261501101892 0  0.3307109909790086 0.2037165635083759 0  0.3009701032039409 0.2702970083403109 0  0.20625 0.41 0  1.58125 0 0  0.4812500000000001 0 0  0.9838963872396855 0.2722244191167347 0  0.06772484939107212 0.3260067317374387 0  0.20625 0 0  1.58125 0.41 0  1.631724228912893 0.3381867502687533 0  1.825608881788174 0.14499488549201 0  1.85625 0 0  1.44375 0 0  1.44375 0.41 0  1.85625 0.41 0  2.13125 0.41 0  0.7562500000000001 0.41 0  0.4812500000000001 0.41 0  1.16875 0 0  1.03125 0.41 0  1.03125 0 0  1.71875 0 0  1.99375 0 0  1.99375 0.41 0  0.9408708167433545 0.0651989315768642 0  1.340625 0.3489494290853124 0  1.134375 0.3489494290853123 0  1.700180620188976 0.3438659752031281 0  0.29668452290037 0.1318471691375986 0  0.3175441051360096 0.06496934809856265 0  0.06509151636162461 0.08140814015999148 0  2.135782184673599 0.07126652247502523 0  1.668441847249787 0.2129203728327609 0  1.295782514339747 0.2378437748815763 0  1.409375 0.3520314716057996 0  2.129248544730567 0.1906135162504124 0  2.060771381434487 0.1989445750470348 0  2.013252586573865 0.1496169464686054 0  1.942766402200229 0.1734448904596831 0  1.895522487186454 0.06076163953489683 0  2.069553871656643 0.06605731020975725 0  0.4670911801404742 0.2498408582391372 0  0.7622743084658112 0.1264100838268133 0  1.274680914880868 0.3520219391081363 0  0.3148669572599245 0.3331753056385887 0  1.614713220494657 0.09473434380863296 0  1.72990325744076 0.2380068107952482 0  1.356580098625191 0.2120393231351682 0  2.034370752044885 0.2668681600792073 0  1.51768709249349 0.3426260931494756 0  1.561883724969884 0.1650446847858835 0  1.197344062229598 0.2523725417393646 0  1.804085235518364 0.3468178408964637 0  1.817887819205233 0.2589243285818559 0  1.905897727272727 0.3485060975609756 0  0.7296439733931823 0.06337466644369745 0  0.4250935971865949 0.1394919578475796 0  0.3773030136511669 0.05130372097998036 0  1.192836486056382 0.3562350748565544 0  1.1029124365364 0.226143510831178 0  1.28257088594801 0.2944411014911587 0  0.1905185804731426 0.06029880676029167 0  1.474860187679412 0.2504218616229368 0  1.406767003493824 0.2829282258560709 0  0.5209826960981064 0.2830664557824064 0  0.5131119502780163 0.3617405848213254 0  0.1948220106098172 0.3081993407644811 0  1.845656689180403 0.1998310418452388 0  2.144958525570388 0.2909790873294231 0  2.2 0.15375 0  0.8833025251326762 0.2625402923007629 0  0.171875 0.3653875762360952 0  1.57794966442982 0.3540357145964566 0  0.446875 0.366068291212731 0  0.4272051715206439 0.2891929346190664 0  1.508991196088596 0.1421783375065625 0  1.50436820029908 0.06143401634903343 0  1.223857000523521 0.08235548624535324 0  0.6137904613287555 0.3066826366281556 0  1.153316824384777 0.1289850171317838 0  0.9751573703656133 0.327632618473408 0  2.148922302309752 0.1258841779285271 0  0.9281250000000001 0.3643758685795699 0  1.621993280276081 0.2841214267927899 0  1.550118654119087 0.2461998729100966 0  1.327182649291491 0.1216967252533594 0  0.9939955742738924 0.04663549843168518 0  1.753125 0.04556020050186112 0  1.271875 0.04556020050186116 0  0.9734326767716519 0.1506854560854393 0  0.103125 0.3675775577080512 0  1.94956388244759 0.1180512551534177 0  1.949997712993411 0.04965831614304109 0  0.717433898748555 0.295596016333797 0  1.771961817615021 0.1530278789497521 0  1.909246823951428 0.2812757146784527 0  0 0.35875 0  1.050632804931928 0.1226269704412814 0  0.05695108326502596 0.2024009637347154 0  1.948575539857022 0.2445328248721197 0  1.697271520964565 0.1233917627620729 0  1.065625 0.3689344961371042 0  1.085849084308977 0.3170853572226867 0  0.1015495998772944 0.04226029099983852 0  1.577403511714593 0.05463601888079143 0  1.751571320346033 0.3651102912045228 0  2.2 0.35875 0  0.7441773632462837 0.1786786606458751 0  0 0.05125 0  1.466879772203159 0.3611261772912453 0  0.6282230348858767 0.3577675483994025 0  1.990280163552011 0.3564754268533217 0  1.17471064520912 0.2990917256188288 0  0 0.25625 0  2.2 0.25625 0  2.2 0.05125 0  0 0.15375 0  1.853978576207987 0.35875 0  1.515638456102889 0.2882700110184686 0  2.150453692751374 0.2387066338105111 0  1.323782677156475 0.04897634338873398 0  1.409375 0.03715320121951221 0  1.406484531114799 0.1087852750766809 0  1.134375 0.03715320121951219 0  0.721875 0.3729363922161693 0  0.7941695928236929 0.3696489254637395 0  0.7934827162619036 0.3013409431456604 0  1.627401732573545 0.04552157221025036 0  0.9352049974617431 0.2507047965699472 0  0.8763260682738339 0.3611103317460093 0  2.045405893604797 0.1105340662939892 0  1.255408269734577 0.1577307500159216 0  2.028125 0.03707597992059326 0  1.003030137506755 0.3689344961371042 0  1.248258025468107 0.2565907092181813 0  1.203125 0.03661323374043041 0  0.4800125512335631 0.0549472816999725 0  2.072662025974815 0.2975086504196739 0  0.240625 0.3729825336867542 0  1.113252391110535 0.10238286244357 0  1.071052763974265 0.1885202618768825 0  0.8738809401657862 0.3106483608284829 0  0.6786819423003397 0.2677558482644021 0  1.887722846421017 0.1760882698830035 0  1.472640588990488 0.1118278026240017 0  0.5843750000000001 0.41 0  1.865937103925594 0.2604137786483804 0  1.463913572748262 0.2030442564990043 0  1.376426316059077 0.3186741374914345 0  0.1038643885363755 0.2162701735320032 0  0.1769473813227781 0.1070849728467114 0  0.458787839809176 0.171541653775316 0  0.240625 0 0  0.04179569703428024 0.2877217852556549 0  0.1258346557601885 0.2699740073054968 0  1.722140693354707 0.282908100935778 0  0.41206179117512 0.2448172567039922 0  0.3702471778075604 0.2265217604228704 0  0.3714881805374215 0.1786967818665642 0  1.77397096061971 0.2481483237422926 0  2.105123889160691 0.03743885948498647 0  1.001138337938679 0.229719337663998 0  1.051242910646791 0.2854826559431138 0  1.395420985247586 0.18
[...]
<PointData  Scalars="f_43"> 
<DataArray  type="Float64"  Name="f_43"  format="ascii">1.0792045375288170e-01  2.0432841712478914e-01  -2.7592027165594960e-11  -1.8900836296035956e-10  8.0365329239392283e-02  8.3542221898664795e-02  7.0145348125151039e-02  6.6427535124757700e-02  1.3684638348118694e-01  1.3834982842532442e-01  8.9231468661959079e-02  7.1115146834980866e-02  -4.8098350364448976e-03  -3.6502308080852051e-03  -7.4994183911648330e-03  -1.4430927763962197e-02  3.5245316837261308e-02  -6.3542921528413066e-03  -2.1116441682644854e-02  8.7338364892201620e-02  1.5900137004723705e-01  1.5172784651039145e-01  7.3926581630292032e-02  1.5302044991787991e-02  -1.9788270585836151e-02  -3.4044615711177173e-02  -2.4746268250231681e-02  -1.1111918655717644e-02  -4.9317057675273403e-04  1.1806347318914297e-01  2.0349373470285458e-03  5.7669896105950420e-02  4.7330058493506202e-02  1.0120259017020863e-01  -1.1443054580876904e-03  9.2760469645628008e-02  6.0496419730238506e-05  -3.3121347550395521e-03  3.3113665978666204e-03  3.6636867816063142e-03  8.3896664332032394e-03  5.8675226065356603e-03  2.2582778191413150e-03  2.7928292110594713e-03  3.9447777687975864e-03  4.0477811697813074e-03  4.8739342091991883e-03  1.5615150579014947e-03  -3.9686960363366058e-04  -1.5529049972859743e-10  2.5655062850624892e-03  8.0325055480236399e-02  1.4913256043564930e-03  1.8711260561458966e-03  -8.8870956720663203e-11  5.3407393604150621e-03  2.6795866324386482e-03  1.1340296525352999e-02  4.6381075304134040e-03  1.1493667533105723e-03  7.7720880398815637e-04  1.0637958684237660e-01  1.1385823152704236e-01  1.0689679790954031e-01  7.7916332743419216e-03  1.0752454625934475e-04  -5.4314015459323460e-04  3.1181963306870506e-04  2.8413117394570221e-03  6.7029945519203162e-03  9.9950282363260828e-04  9.1326759608824554e-02  9.9460272112128378e-02  3.8950779371313047e-03  1.8220864515075771e-03  2.9126968082857406e-03  7.6096221207969572e-04  3.2392740719085701e-03  1.2260041396442661e-03  4.8204884220004974e-03  1.0870328802706247e-01  1.2852425412417542e-01  1.2865641498352050e-03  7.1783143547778497e-02  2.1728886294111517e-03  1.4057861923828479e-03  1.1493118365569453e-03  1.9398057896501256e-03  3.3824395957224433e-03  5.4751994881298690e-03  -9.6115324691822552e-04  1.5987123495088921e-03  5.0617709963693782e-04  -1.0045106253678237e-10  3.0380892222774641e-03  9.9907332518363277e-03  8.5366027353476377e-03  -8.4487662148823473e-04  1.1188254849045386e-03  -2.1119025089945103e-04  3.8167885300970212e-03  2.3387331390459190e-02  5.2218201701707476e-03  1.4841958905366856e-03  3.0231714723424254e-03  1.1325194234292663e-01  9.0197991736296348e-02  1.2853895781023020e-01  1.0507595922544900e-01  1.6657157971449918e-03  9.4007950011184963e-04  -3.1115778953466977e-03  1.0737459020953505e-03  7.7276360752192403e-04  1.2792265420123769e-01  2.7718968894125235e-03  3.6034484392898887e-03  8.6709500275881729e-02  9.5156120384367743e-02  3.3988446571155913e-02  3.9509651345362284e-03  1.2081578637977644e-01  4.9750616649676185e-03  1.0830977265084892e-01  2.5524139131544344e-03  2.2158726339783254e-03  1.8820907363929793e-03  1.0273668258755074e-01  -2.9113438665491573e-03  9.6310503519248108e-02  1.0452546671179156e-03  2.1685833037362473e-04  -4.3812068579436142e-04  6.1560424212957704e-03  4.0193648373272797e-03  1.7783622209601132e-03  4.9029290062971032e-05  5.4331141760166528e-03  1.6004932843168620e-04  -2.6530911350825860e-04  7.5911261584265741e-03  -1.3299375759575165e-03  1.1693849187147272e-01  2.6009952278710047e-04  1.0288061922026899e-03  1.5443838558354463e-04  8.5155788758759413e-02  8.8801427390017909e-02  8.7326761090824601e-02  1.0081764515963690e-01  1.0461685165860856e-02  1.0643106601302593e-01  1.7867224492483732e-03  1.0824587051470637e-01  1.0528612081472766e-01  2.0106967024892172e-03  2.7618573008872044e-03  4.1543958607591219e-03  3.5431501096976660e-03  9.7618506458856877e-03  1.4449852462625299e-03  4.8656887421763377e-03  9.0686826940607516e-04  1.5751028719274780e-03  6.8264572432835041e-02  -9.4655021228328958e-04  1.4159869330942472e-03  -2.0223832400249026e-05  6.2670783230497499e-03  2.1531546830660941e-03  2.8957804766578271e-03  3.0967894980659961e-04  3.0251773086976872e-03  2.7401946799919912e-03  4.4701698157615499e-03  8.7452991813846845e-02  1.0134310382040217e-01  1.2847382611455960e-01  7.2639198407154556e-04  4.6140999565235956e-03  1.3825670029204663e-03  2.1734167927659159e-03  8.5328695732144464e-04  1.6901798114566887e-03  2.1077298289756841e-03  2.9614344672467385e-03  3.0954571064617121e-03  1.4244853372996076e-03  8.0974645743258647e-02  -2.0978178495599017e-03  3.3192939185694480e-03  8.9045504632508807e-02  9.0573514411668912e-03  4.9301177387489990e-03  2.0048836615496968e-03  2.1793921630063125e-03  9.3894272106308653e-04  6.6747939329026632e-03  1.0958449581820310e-03  5.2533800743774662e-03  4.9671178702527180e-03  4.2225420980845857e-03  -2.1913912640478773e-03  1.1800102664460675e-01  1.0611130310357529e-01  3.1165324508619610e-03  1.0137690854676890e-03  3.0663577526212952e-03  1.0623942192003683e-01  2.0452639582010123e-03  2.4353859097617347e-03  4.5732004709578583e-02  5.8150374591932175e-02  9.2524545878447870e-02  4.2708787458095761e-03  7.0507160908272180e-04  -3.4104600307534930e-11  1.8269492458438767e-03  1.0326690292910720e-01  1.6171121755395917e-03  7.5154736860531118e-02  8.6550661760524242e-02  8.0323613777398637e-03  1.0744704775077251e-02  -1.2042987565069221e-03  -2.8774945274062339e-05  -5.9098513892445563e-04  1.6354937318314121e-03  5.9693385978659935e-04  1.0321039902856379e-03  2.3960814149233019e-03  1.9194580974989234e-03  5.4287692514648023e-04  2.3129341509467061e-04  5.4820455517649034e-03  3.5702077139646441e-05  9.6744153887172706e-04  1.0745159624628467e-01  2.6480042135609934e-03  2.5550782683862448e-03  -3.0497798485287775e-03  4.9178788447714365e-03  4.0372395486408487e-03  1.0775701572096023e-01  4.9111570592637018e-04  1.2072496890705046e-01  3.2983682447637608e-03  6.4680088558095265e-03  2.0528618767603969e-03  2.2460953146041249e-03  1.2264148443046891e-01  1.0454028881988956e-02  5.1649239184305045e-03  -1.8900836296035956e-10  -2.5880603925869015e-03  1.3724203361504497e-01  1.3449889976021416e-03  1.7022862601253692e-02  2.9507841916605517e-03  2.5088692760878713e-03  1.1213455800400272e-01  -1.5529049972859743e-10  -2.7592027165594960e-11  1.2376636167989460e-01  4.8719547362382522e-03  8.7668886245111577e-04  6.1830120159793054e-04  2.0199670285606631e-03  7.3874491327074734e-03  5.4419023368664585e-03  -5.7424249000348341e-04  4.2105665377519547e-03  1.1628650644475906e-03  4.9250293386215701e-04  9.1976610862445699e-03  1.8719064507856965e-03  8.4923023932012792e-04  1.7051039489065769e-03  -1.2691874283746857e-03  1.8247876066247223e-03  1.5239552398541862e-03  1.5539340153608941e-03  -8.3988557017409496e-04  1.0952157682240785e-01  1.6887488241231190e-03  9.5875909344469740e-02  -1.7165792738252922e-04  9.5405765080827090e-04  1.3702407853984600e-03  -1.0682290156605741e-02  3.5974070682850742e-03  8.6634013367484063e-03  3.4855681560060872e-02  4.4974951758020212e-03  4.0297989912251066e-03  2.7848748002580674e-03  1.2368100771672591e-01  1.0724529358760357e-01  1.1617811559294931e-01  1.0230471288686750e-01  1.0994652983892755e-01  1.0619345932338442e-01  4.8049146176012197e-03  9.1693315834750475e-02  9.1803674514965780e-02  9.2849247709522714e-02  5.0965787400881462e-03  1.0484443669549878e-03  1.5878256000691053e-03  1.8371958583511261e-03  3.1523145786697114e-03  2.3763781104323739e-03  8.2772299429797219e-02  7.6574627023454876e-03  1.2739219893416137e-01  1.3222006223710678e-01  1.4521985211965228e-03  1.2933692227988765e-03  9.2900789343331805e-02  5.1894116516766021e-03  2.7745337952098273e-03  8.9315744086632065e-02  8.4535911922170165e-02  8.5854925693877981e-02  4.8483364221686112e-04  1.3811436363468451e-03  1.6882456800916788e-03  1.3629991573528154e-03  6.1282734739611495e-04  2.8166023819572146e-03  9.7856263555234427e-03  4.5636982229441238e-03  3.9020003316533471e-02  1.4094370691655930e-01  1.0785876707222289e-01  2.6533299480681642e-03  2.6449146328791297e-03  -6.3902040046511335e-04  8.9508976522861883e-02  9.1416945450772696e-02  -7.0743428107883344e-04  1.0944567621623966e-02  5.1644031736144793e-03  1.4330439584105028e-03  9.9673933795059119e-05  7.2663442210272686e-03  6.6895100405255934e-03  4.5987760648329347e-04  5.3305867930823064e-04  1.3058210346132479e-01  1.3337440979680423e-01  1.0794509534168413e-01  1.1372001536622402e-01  -6.0344965399650001e-04  -2.8691993800447618e-04  3.3353618618538823e-03  4.5120589227696838e-03  3.4371686700385060e-03  8.9072455067330900e-02  8.1867284417999620e-02  1.0124486812622532e-01  1.1148413820653442e-02  3.6222499636932130e-03  1.5883651031048693e-03  1.3767271852503701e-01  3.3990890841923733e-04  5.1853801762015506e-03  5.0154618035169688e-03  3.7361463974523623e-03  1.0956511267378345e-01  1.6504913722555266e-03  9.7104036921282222e-02  8.7108656834059481e-02  4.0252748956955599e-03  3.1853445593813916e-03  8.9797572354537156e-02  1.2526472676809171e-03  1.0126272781915869e-02  1.8060510007019642e-03  1.0303551491323031e-01  2.0079373780990833e-03  -8.9114028874392255e-04  1.0805128905756521e-01  1.0155844387886052e-01  7.8090604621681783e-02  5.2290199505856072e-07  6.5617786250270435e-05  9.4084907696315027e-04  -7.6383891258687685e-06  4.6719731257888496e-04  1.2804854632332890e-01  3.2744175504852958e-03  8.0177069515717611e-02  9.6379229692884053e-02  -3.3321858836007364e-04  -4.2568256089903908e-03  2.1916514981085190e-03  5.3763515572194644e-02  4.4358610920765280e-03  9.6725990027938288e-02  3.5534587477762244e-03  3.1412254686258604e-03  2.7751615843333759e-03  8.7163822858029802e-02  9.9300559198111198e-03  1.5311916097913738e-03  6.4454968960015440e-03  3.1776797574222031e-04  -2.5573213309889719e-04  7.9869183437528378e-03  7.7906968163952732e-03  8.5934594182513119e-02  1.1534379795183276e-01  2.2495637169324951e-03  4.8059018716969937e-03  8.7903487224242807e-02  1.7435423686102758e-03  1.2438184151660543e-01  4.8692322511758382e-03  -1.5120942892385826e-03  -3.2282897334346516e-03  2.3618476137781411e-02  5.8614694221655770e-03  -1.0553405588717268e-02  1.7956195872152608e-03  1.9703030458922167e-03  1.7335613787013665e-03  1.0813077989210912e-01  1.0872534211212384e-03  7.2783742757434394e-04  1.1812134351167273e-03  -1.6238154000410376e-04  1.1093200838864290e-02  -2.1830712851380951e-04  -1.1602558202942685e-03  -1.9209367825261281e-03  -2.3490417278204299e-04  5.0805226230165512e-03  -1.4384979904719585e-04  5.6224364496862264e-03  -8.0615669452107860e-04  3.0170990707557481e-03  4.4010026253682479e-03  5.9603232039209097e-03  8.3134872448014003e-04  2.5198584823997090e-03  8.3656540047372413e-02  -1.4977880362945996e-03  -1.1891699439748849e-03  1.8555949559878571e-03  3.6694883858540677e-03  7.6346056476883715e-04  4.9965152854456016e-04  2.8845977443988178e-03  5.5617805215707134e-03  1.2133564368011173e-03  8.0819962182693300e-02  8.3779268664895004e-02  1.8341286166503297e-03  4.0323908380704545e-03  8.8030564938987366e-02  1.7380045269512834e-03  2.1887802478520145e-03  4.9213008990223032e-04  1.1897359628730629e-03  2.2292983227292945e-03  -1.7696690928467710e-03  1.0290462989351733e-03  4.4832605524298508e-04  5.2808590159884620e-03  1.0826670363890347e-02  1.2796527211783948e-03  7.1084663522000724e-04  1.2521857912748886e-03  -1.7651652851736270e-04  1.3256998969894151e-01  1.0905756059543059e-01  6.5318665499664707e-03  2.4274488988271755e-03  1.0358754247888886e-01  -4.3259262258092592e-03  4.0819136672213445e-04  9.1156893843950305e-04  2.9909127516469162e-03  1.2219589463186120e-03  -2.3763534446711763e-05  3.6513315559238719e-03  4.5782528319443308e-03  -1.8417438880207106e-03  1.2215506199317570e-03  -7.0955709686616282e-03  2.0905467177263128e-02  3.9371064330037605e-04  1.7928827345688530e-03  1.7166626963707409e-03  2.8016222234219430e-03  2.3192158997733703e-03  3.0572887640406715e-03  2.5760537257866209e-03  2.5330094596630512e-03  2.5579219551527779e-03  9.4329768327526861e-02  1.0380287159426679e-01  4.3155663583903841e-03  9.1519298577245596e-04  2.7357431248262068e-03  3.9126899833102106e-03  5.7504280388156071e-04  -5.3967837336664135e-04  1.7444929732123393e-03  2.2507370583148196e-03  4.4228352698917860e-03  2.4263873629933523e-03  2.0271567306397332e-03  7.5537762171597558e-04  3.2765638905547408e-03  2.8678787513126956e-03  2.4229558241362940e-03  9.9987107467788314e-02  1.0606234850735297e-01  -7.8828854181275942e-04  3.6774216577640023e-03  3.9416957550685115e-04  1.1369342236153305e-03  3.7807490427205783e-03  -7.7107148455905035e-04  8.0202445727173312e-03  1.1736395350176333e-03  5.3002962338660354e-03  1.7325989159438643e-03  5.3796639464599970e-03  4.6819590839058760e-04  1.8541726318541251e-03  4.4780059886984601e-04  1.0748298697726344e-01  7.5477386412212508e-02  1.0455506842041570e-01  9.6641549831161563e-02  1.1781924083457601e-01  1.0813057444792012e-01  1.0453638583022978e-01  1.0810747850979695e-01  4.1511328592013384e-05  4.9386747754357494e-04  5.8994853769638360e-02  1.4078620684873576e-02  2.3626500468839928e-03  -9.3871650235648760e-04  1.0861541476977936e-03  9.4775636640425549e-03  2.4686972990585927e-03  3.2153311974715060e-04  9.6478422176502599e-05  1.8289778809044976e-03  3.4229987161218047e-03  1.3968458672110253e-04  4.8011264417194529e-03  9.1037277450870369e-02  7.1244797183278502e-02  4.9511114495342685e-02  -3.2285863260554692e-04  2.0566980863071026e-03  1.2515943769703855e-01  6.8574725143131154e-03  -6.2460220440061398e-04  1.0543356205447579e-03  2.8413158532081078e-02  9.0049116091546783e-02  2.1595307602604104e-03  2.7398217377495506e-03  8.1724674971611844e-02  2.9761822478671656e-03  8.2463723992693262e-04  9.3193478211558837e-04  2.9694266897143259e-03  1.6945378795221950e-03  1.8029926654437461e-03  4.5213326364593881e-03  4.3805306016136024e-03  1.4984221189497493e-03  5.0174638435956176e-03  3.9839740809115886e-03  3.9483091077024942e-03  7.0285062140516732e-04  3.8847588497101888e-03  1.1763196034771922e-03  1.0004224811964047e-02  1.4965670809837877e-03  1.2597871133482605e-03  1.0085940732182255e-01  6.7564918653210626e-02  1.5654645243390020e-03  -9.6857343761308154e-04  1.9655443767880323e-03  3.3802369937280877e-03  3.3464659813688233e-03  3.1667125144933671e-03  1.5238756637610703e-03  2.3190651671072283e-04  2.1590193050754158e-03  5.2284456061011727e-03  1.0247842431184055e-01  5.0811288624399709e-03  4.3694575012043005e-03  4.5779151073825847e-03  2.4670540824730360e-03  1.0713353669609767e-01  3.9940232409695314e-04  -3.8965768539301390e-04  8.5705198329602637e-03  8.4335189030581348e-02  -2.1655968861712237e-02  9.9365909640724750e-03  8.5927482547965561e-03  4.1895265701883686e-03  1.2759948116586078e-01  1.6048010414878966e-03  -2.4203037245495830e-03  2.1877053139296573e-03  1.9227716681670954e-03  1.0663741220884475e-01  1.1322901594637996e-01  5.6998855808034444e-03  1.9023747875746529e-03  1.3208321151523594e-01  1.0765438482119408e-01  4.6436323477968330e-03  1.4690138763008120e-03  3.6973821959978398e-03  -1.0426985341519029e-03  1.7199910311556919e-03  1.0759359694248958e-02  4.8205051220877957e-03  3.0596069925731429e-03  5.0550317957635885e-03  1.1271266547983191e-01  9.9732047070754781e-02  -5.9820443099946352e-04  4.8078393666031814e-04  2.0579970628487082e-03  4.7168469423758961e-04  5.4967002641482798e-03  9.8884226882922938e-03  1.0000354021562538e-02  5.1894364299887438e-03  4.9430546438572519e-03  1.3005909983257464e-03  1.0932136941828546e-02  3.1958533123085989e-03  1.5769259697641519e-01  1.0782967400298282e-01  8.1640267817772241e-03  3.0884322546186355e-03  -5.2866146511693739e-03  1.0127457754596246e-01  3.3824457410419170e-03  1.0950887760602518e-03  1.0947184415167589e-01  8.3423046616177526e-02  2.3603632665089606e-03  1.0982385211692788e-01  8.8750845530213979e-02  2.7502952078408143e-03  -8.8572530577714498e-03  1.5888250486468188e-02  5.0431712591474713e-02  -8.2630168905744033e-04  5.0085891426010871e-03  9.8247435137622683e-04  1.1116496464740637e-03  1.2046181448943655e-01  3.9891980285903942e-03  6.7074118457407096e-04  7.8335803455906478e-03  4.4828808951462695e-03  -1.5529049972859743e-10  9.0095186344615122e-02  1.7013491438965485e-03  1.9112632780001002e-03  1.0742876293908299e-04  1.4149944972957696e-03  3.2167799411572436e-03  1.0953621372484623e-01  1.2470853927425711e-01  4.0616669696111113e-04  1.7693692111644486e-03  8.5777798007654615e-02  9.9439579408311538e-02  1.2186372000071467e-01  4.0730291881962621e-03  2.7845284223615755e-03  2.9000020959620647e-03  1.4106231816446632e-03  2.8075814691176531e-03  9.0612616816100073e-03  4.6948143975362212e-03  1.9159422366467720e-03  1.1358715473715941e-01  2.7743622579649426e-03  2.5036887265987694e-03  1.6034687996168062e-03  4.6568077535496660e-02  9.0330976571723232e-02  8.2185065888560074e-02  3.9540126270839289e-03  1.1204023166374368e-01  1.4588682273067066e-02  6.2041199323722715e-03  -4.8823701659760892e-03  1.2596844679381709e-03  1.3113325254443047e-03  6.0048904378860843e-04  -1.0045106253678237e-10  1.3384678364374805e-01  8.7600241411002186e-02  2.7293925899226565e-03  2.1330432179808116e-03  1.6800321671378328e-03  3.0559981666964981e-03  6.0622782507185309e-03  1.0232249977579207e-01  9.2854186062127725e-02  1.6033983230752957e-02  2.5082440196862281e-03  6.3914286060590075e-02  2.6363034141884973e-04  2.6888617037007360e-03  7.2998549402907339e-03  2.8491997182974976e-03  3.0805614114677606e-02  7.3630647921623174e-03  4.3383137474713659e-03  5.2621124666548539e-03  8.2581997543751298e-04  8.8629720822839988e-04  3.7020446558082423e-04  8.0045391405997299e-02  5.2983798513169741e-02  4.2229324215193780e-03  2.9759500228485839e-03  -5.8455068843495496e-03  6.7846120329846313e-04  1.2291003898633542e-03  5.8901814223247103e-03  4.9739378571671509e-03  1.1641344405600516e-01  8.9565434021673818e-03  -1.0044623195990122e-03  -1.0803372915999791e-04  1.0790659348919138e-01  1.0848317011268808e-03  8.3564269885926398e-02  -2.8764922283061258e-03  1.0295319990984622e-01  3.2846689280613718e-03  -7.3248205041414078e-05  8.7919675601879287e-04  8.9181725279201082e-02  -1.0651404935558238e-03  1.5490464735450478e-04  -1.5529049972859743e-10  1.7567010545312125e-03  1.7644707240388245e-03  1.3351647570612995e-03  2.2344607154084709e-03  9.0124922614469985e-02  8.7794347508021106e-02  2.9180033087385284e-03  -4.1488164976015153e-04  2.8385334897831366e-03  1.3811110458019594e-03  2.7124557824727050e-03  1.3386486675642112e-03  2.5959863528168931e-03  7.3845802140132116e-02  3.0866622974345627e-03  -1.8696326828782281e-03  -1.0666105147826060e-03  6.3783138164997862e-03  2.2321629171116754e-03  2.1290135523320871e-03  2.0665560054885556e-03  4.5768328066575275e-03  5.2745887185831021e-03  2.8140892477227179e-03  2.6933276645545175e-03  1.0023396597874487e-01  1.1007908874460370e-01  4.9220416490220230e-03  1.1696343152442006e-01  1.0609532331723613e-01  5.1741195963368224e-03  1.2922480465598417e-03  7.1395579908741977e-04  2.5823956496895623e-04  2.8646155131232024e-03  8.1473774118492870e-04  1.9805554320262205e-03  7.7558796170079367e-02  3.5447456118900432e-03  3.2781649753574893e-03  -3.2953089057644202e-05  8.1194525044204935e-02  -1.2196496390491111e-03  4.5688027656051490e-03  -1.4076269830702681e-03  1.1949838986291458e-01  1.0846406487864209e-01  1.6777576781893029e-03  1.8398531213163799e-03  1.6536645650469524e-03  9.7842590944499114e-03  5.5917542785507094e-03  1.0776590053297586e-01  5.1671691121914394e-03  9.2737409585177261e-02  1.2075305556828657e-03  6.9739150838114466e-02  7.6328551033079980e-04  4.5388161673137369e-03  4.3386035797420260e-03  1.0696757263186005e-01  3.2582769809900627e-03  1.3909749799521989e-03  1.2809182390827458e-03  1.095649650