<?xml version="1.0"?>
<VTKFile type="UnstructuredGrid"  version="0.1"  >
<UnstructuredGrid>
<Piece  NumberOfPoints="1404" NumberOfCells="2604">
<Points>
<DataArray  type="Float64"  NumberOfComponents="3"  format="ascii">0 0.41 0  0 0 0  2.2 0 0  2.2 0.41 0  0.2353553390593274 0.2353553390593274 0  0.25 0.2 0  0.2353553390593274 0.1646446609406726 0  0.2 0.15 0  0.1646446609406726 0.1646446609406726 0  0.15 0.2 0  0.1646446609406726 0.2353553390593274 0  0.2 0.25 0  0.6923879532511287 0.188268343236509 0  0.7 0.15 0  0.6923879532511287 0.1117316567634909 0  0.6707106781186547 0.07928932188134523 0  0.6382683432365089 0.05761204674887133 0  0.6 0.04999999999999999 0  0.5617316567634909 0.05761204674887134 0  0.5292893218813453 0.07928932188134524 0  0.5076120467488713 0.111731656763491 0  0.5 0.15 0  0.5076120467488713 0.188268343236509 0  0.5292893218813453 0.2207106781186547 0  0.561731656763491 0.2423879532511287 0  0.6 0.25 0  0.6382683432365089 0.2423879532511287 0  0.6707106781186547 0.2207106781186547 0  1.1 0 0  0 0.205 0  1.1 0.41 0  0.55 0 0  0.55 0.41 0  0.275 0 0  0.8250000000000001 0 0  0.275 0.41 0  0.8250000000000001 0.41 0  0.6875 0 0  0.61875 0 0  1.65 0.41 0  1.65 0 0  1.375 0 0  1.375 0.41 0  1.925 0 0  1.925 0.41 0  1.5125 0.205 0  1.7875 0.205 0  0.9625000000000001 0.205 0  1.2375 0.205 0  2.2 0.205 0  1.99375 0.2152743902439024 0  0.4125 0.41 0  2.0625 0 0  2.0625 0.41 0  2.2 0.3075 0  1.7875 0.41 0  1.375 0.1486128048780488 0  1.5125 0 0  1.7875 0 0  1.5125 0.41 0  0.9625000000000001 0.41 0  0.4125 0 0  0.1375 0 0  0.1375 0.41 0  0.6875 0.41 0  0.9625000000000001 0 0  1.2375 0 0  1.1 0.1486128048780488 0  1.2375 0.41 0  1.65 0.1486128048780487 0  0.823495464168302 0.2603780552348366 0  0.3738707794507017 0.2720196349488618 0  0.3662291281331582 0.1311456406657909 0  1.676715909090909 0.2793064024390244 0  1.126715909090909 0.2793064024390244 0  1.348284090909091 0.2793064024390244 0  0.8287581077665108 0.1302150898054257 0  1.894702181800738 0.1282910975492754 0  2.092797818199262 0.1282910975492754 0  1.85625 0.3075 0  0 0.3075 0  0 0.1025 0  2.099172119769978 0.25625 0  0.4752414543992246 0.3180372603390748 0  1.99375 0.08395950269330846 0  1.459960956013612 0.3075 0  1.569025960719943 0.2986889805672169 0  1.03125 0.3278689922742084 0  1.959375 0.3126371951219512 0  1.749222215368287 0.1025 0  1.275777784631713 0.1025 0  0.9228016959331474 0.3075 0  1.000777784631713 0.1025 0  2.2 0.1025 0  1.225938124459196 0.3075 0  1.550777784631713 0.1025 0  1.44375 0.07430640243902442 0  1.16875 0.07430640243902439 0  0.7562500000000001 0.3358727844323386 0  0.89375 0 0  1.899250267340833 0.2229966846119207 0  0.61875 0.41 0  1.766482954545455 0.2934032012195123 0  1.046078563095834 0.2389031808701145 0  1.421109702350723 0.2261157654379721 0  0.07567171807980319 0.25625 0  0.2511897295290552 0.3235829392832554 0  0.07655002503762308 0.1488653460959645 0  0.1377245246847496 0.3206030474919778 0  0.6694099692696568 0.3242771941727899 0  0.9168971191497528 0.1295727156104653 0  0.7562500000000001 0 0  2.118919042110979 0.3422084711244843 0  2.13125 0 0  0.06875000000000001 0 0  1.30625 0.41 0  1.597888256393107 0.2173787389261347 0  0.34375 0.41 0  0.2493272016354703 0.08091360081773515 0  0.5588896233436766 0.3264056208677571 0  1.829299675393195 0.07400700849299596 0  0.1334079128307869 0.08523463035786674 0  1.71875 0.41 0  0.06875000000000001 0.41 0  1.16875 0.41 0  2.038220665644273 0.332420740103091 0  0.8810647413215221 0.2027360103977071 0  0.34375 0 0  0.7453891198966415 0.2471459041008237 0  0.42112093004955 0.1988123139090554 0  0.8314023090855964 0.3351170841770613 0  0.89375 0.41 0  0.7906250000000001 0.06615386481594063 0  1.452769549894695 0.1548122580621249 0  1.369219062229598 0.07430640243902442 0  1.30625 0 0  1.07420695807087 0.07430640243902439 0  1.720943423819132 0.1714577452753128 0  1.157188124459196 0.205 0  1.304056576180868 0.1714577452753128 0  1.67579304192913 0.07430640243902437 0  1.209670467133757 0.136210026696477 0  0.4312800784902823 0.08036147352247747 0  0.8723959680194693 0.07066860609690805 0  1.025335513626278 0.1700681449722324 0  0.7945632284247136 0.1940204203251442 0  0.378125 0.3452261501101892 0  0.3307109909790086 0.2037165635083759 0  0.3009701032039409 0.2702970083403109 0  0.20625 0.41 0  1.58125 0 0  0.4812500000000001 0 0  0.9838963872396855 0.2722244191167347 0  0.06772484939107212 0.3260067317374387 0  0.20625 0 0  1.58125 0.41 0  1.631724228912893 0.3381867502687533 0  1.825608881788174 0.14499488549201 0  1.85625 0 0  1.44375 0 0  1.44375 0.41 0  1.85625 0.41 0  2.13125 0.41 0  0.7562500000000001 0.41 0  0.4812500000000001 0.41 0  1.16875 0 0  1.03125 0.41 0  1.03125 0 0  1.71875 0 0  1.99375 0 0  1.99375 0.41 0  0.9408708167433545 0.0651989315768642 0  1.340625 0.3489494290853124 0  1.134375 0.3489494290853123 0  1.700180620188976 0.3438659752031281 0  0.29668452290037 0.1318471691375986 0  0.3175441051360096 0.06496934809856265 0  0.06509151636162461 0.08140814015999148 0  2.135782184673599 0.07126652247502523 0  1.668441847249787 0.2129203728327609 0  1.295782514339747 0.2378437748815763 0  1.409375 0.3520314716057996 0  2.129248544730567 0.1906135162504124 0  2.060771381434487 0.1989445750470348 0  2.013252586573865 0.1496169464686054 0  1.942766402200229 0.1734448904596831 0  1.895522487186454 0.06076163953489683 0  2.069553871656643 0.06605731020975725 0  0.4670911801404742 0.2498408582391372 0  0.7622743084658112 0.1264100838268133 0  1.274680914880868 0.3520219391081363 0  0.3148669572599245 0.3331753056385887 0  1.614713220494657 0.09473434380863296 0  1.72990325744076 0.2380068107952482 0  1.356580098625191 0.2120393231351682 0  2.034370752044885 0.2668681600792073 0  1.51768709249349 0.3426260931494756 0  1.561883724969884 0.1650446847858835 0  1.197344062229598 0.2523725417393646 0  1.804085235518364 0.3468178408964637 0  1.817887819205233 0.2589243285818559 0  1.905897727272727 0.3485060975609756 0  0.7296439733931823 0.06337466644369745 0  0.4250935971865949 0.1394919578475796 0  0.3773030136511669 0.05130372097998036 0  1.192836486056382 0.3562350748565544 0  1.1029124365364 0.226143510831178 0  1.28257088594801 0.2944411014911587 0  0.1905185804731426 0.06029880676029167 0  1.474860187679412 0.2504218616229368 0  1.406767003493824 0.2829282258560709 0  0.5209826960981064 0.2830664557824064 0  0.5131119502780163 0.3617405848213254 0  0.1948220106098172 0.3081993407644811 0  1.845656689180403 0.1998310418452388 0  2.144958525570388 0.2909790873294231 0  2.2 0.15375 0  0.8833025251326762 0.2625402923007629 0  0.171875 0.3653875762360952 0  1.57794966442982 0.3540357145964566 0  0.446875 0.366068291212731 0  0.4272051715206439 0.2891929346190664 0  1.508991196088596 0.1421783375065625 0  1.50436820029908 0.06143401634903343 0  1.223857000523521 0.08235548624535324 0  0.6137904613287555 0.3066826366281556 0  1.153316824384777 0.1289850171317838 0  0.9751573703656133 0.327632618473408 0  2.148922302309752 0.1258841779285271 0  0.9281250000000001 0.3643758685795699 0  1.621993280276081 0.2841214267927899 0  1.550118654119087 0.2461998729100966 0  1.327182649291491 0.1216967252533594 0  0.9939955742738924 0.04663549843168518 0  1.753125 0.04556020050186112 0  1.271875 0.04556020050186116 0  0.9734326767716519 0.1506854560854393 0  0.103125 0.3675775577080512 0  1.94956388244759 0.1180512551534177 0  1.949997712993411 0.04965831614304109 0  0.717433898748555 0.295596016333797 0  1.771961817615021 0.1530278789497521 0  1.909246823951428 0.2812757146784527 0  0 0.35875 0  1.050632804931928 0.1226269704412814 0  0.05695108326502596 0.2024009637347154 0  1.948575539857022 0.2445328248721197 0  1.697271520964565 0.1233917627620729 0  1.065625 0.3689344961371042 0  1.085849084308977 0.3170853572226867 0  0.1015495998772944 0.04226029099983852 0  1.577403511714593 0.05463601888079143 0  1.751571320346033 0.3651102912045228 0  2.2 0.35875 0  0.7441773632462837 0.1786786606458751 0  0 0.05125 0  1.466879772203159 0.3611261772912453 0  0.6282230348858767 0.3577675483994025 0  1.990280163552011 0.3564754268533217 0  1.17471064520912 0.2990917256188288 0  0 0.25625 0  2.2 0.25625 0  2.2 0.05125 0  0 0.15375 0  1.853978576207987 0.35875 0  1.515638456102889 0.2882700110184686 0  2.150453692751374 0.2387066338105111 0  1.323782677156475 0.04897634338873398 0  1.409375 0.03715320121951221 0  1.406484531114799 0.1087852750766809 0  1.134375 0.03715320121951219 0  0.721875 0.3729363922161693 0  0.7941695928236929 0.3696489254637395 0  0.7934827162619036 0.3013409431456604 0  1.627401732573545 0.04552157221025036 0  0.9352049974617431 0.2507047965699472 0  0.8763260682738339 0.3611103317460093 0  2.045405893604797 0.1105340662939892 0  1.255408269734577 0.1577307500159216 0  2.028125 0.03707597992059326 0  1.003030137506755 0.3689344961371042 0  1.248258025468107 0.2565907092181813 0  1.203125 0.03661323374043041 0  0.4800125512335631 0.0549472816999725 0  2.072662025974815 0.2975086504196739 0  0.240625 0.3729825336867542 0  1.113252391110535 0.10238286244357 0  1.071052763974265 0.1885202618768825 0  0.8738809401657862 0.3106483608284829 0  0.6786819423003397 0.2677558482644021 0  1.887722846421017 0.1760882698830035 0  1.472640588990488 0.1118278026240017 0  0.5843750000000001 0.41 0  1.865937103925594 0.2604137786483804 0  1.463913572748262 0.2030442564990043 0  1.376426316059077 0.3186741374914345 0  0.1038643885363755 0.2162701735320032 0  0.1769473813227781 0.1070849728467114 0  0.458787839809176 0.171541653775316 0  0.240625 0 0  0.04179569703428024 0.2877217852556549 0  0.1258346557601885 0.2699740073054968 0  1.722140693354707 0.282908100935778 0  0.41206179117512 0.2448172567039922 0  0.3702471778075604 0.2265217604228704 0  0.3714881805374215 0.1786967818665642 0  1.77397096061971 0.2481483237422926 0  2.105123889160691 0.03743885948498647 0  1.001138337938679 0.229719337663998 0  1.051242910646791 0.2854826559431138 0  1.395420985247586 0.18
[...]
<PointData  Scalars="f_43"> 
<DataArray  type="Float64"  Name="f_43"  format="ascii">1.0791631125066112e-01  2.0432489199844941e-01  -2.6473217120731200e-11  -1.9644058402995022e-10  8.0360223387030374e-02  8.3538003539063196e-02  7.0142217236048993e-02  6.6423792471131157e-02  1.3684207391147590e-01  1.3834650273870316e-01  8.9228115496320176e-02  7.1110560627928809e-02  -4.8132886649843139e-03  -3.6443509423044560e-03  -7.4905231386624997e-03  -1.4421472646612345e-02  3.5251806411040587e-02  -6.3456476036882706e-03  -2.1108845644160074e-02  8.7339437910783968e-02  1.5899978359156305e-01  1.5172522157647045e-01  7.3918659958180852e-02  1.5291283955713053e-02  -1.9797729970566297e-02  -3.4055724394806815e-02  -2.4759822872688041e-02  -1.1122329789641167e-02  -6.3215105833154160e-04  1.1805976970593728e-01  2.0949853064511992e-03  5.7673610510889761e-02  4.7326852238258214e-02  1.0119962227267239e-01  -1.1372708472500029e-03  9.2755917615907194e-02  7.6383498029032054e-05  -3.3038452317916173e-03  3.3188897988675799e-03  3.9727606008669036e-03  8.2712210114798158e-03  6.3695935690473741e-03  2.1654188720824133e-03  2.8368402243490951e-03  3.9127826207688765e-03  4.1200625254031514e-03  4.9275625698749171e-03  1.6042339717693259e-03  -5.3511203845484166e-04  -1.5647518794015415e-10  2.5663569798141973e-03  8.0321443593737316e-02  1.5133894079836202e-03  1.8553582534641465e-03  -9.0759491294812497e-11  5.4163018514657565e-03  3.0249102064791285e-03  1.1514891346255897e-02  4.6163138443344231e-03  1.2165402359560905e-03  8.1848479654945754e-04  1.0637767162291380e-01  1.1385478427144287e-01  1.0689219095085470e-01  7.7928538661781828e-03  8.3934594234915831e-05  -5.4823212902030633e-04  1.7331746163568588e-04  2.8585560669954846e-03  6.7347658604543122e-03  1.0109098589277307e-03  9.1321500852258097e-02  9.9455778879765575e-02  4.2284047866462601e-03  1.7984312596019112e-03  2.8715520721244009e-03  7.7473382271307648e-04  3.2765543906243546e-03  1.2382295359280385e-03  4.8142629800156456e-03  1.0869928006860657e-01  1.2852072057215952e-01  1.2826867069355920e-03  7.1779261685533946e-02  2.2097499119528206e-03  1.2604453384896604e-03  1.3562392261056793e-03  1.9857844111731138e-03  3.3507028520674406e-03  5.4217437470273008e-03  -9.7568813656396906e-04  1.6345200202455554e-03  4.8420852630470405e-04  -9.9806377691182463e-11  3.0697398676107538e-03  1.0086154706859108e-02  9.0170936854380105e-03  -1.0323337672080602e-03  1.1240326282458257e-03  -2.0918293198557777e-04  3.8161645875592520e-03  2.3384917465811048e-02  5.3540772136736210e-03  1.4683769920640190e-03  3.0491071560284078e-03  1.1324811506822145e-01  9.0193343321915698e-02  1.2853539030639335e-01  1.0507165492412113e-01  1.6611358551579809e-03  9.5503863956751035e-04  -3.1035944299315568e-03  1.0666379548877618e-03  7.8161519151711851e-04  1.2791913832992782e-01  2.7393534026520796e-03  3.8142720698583410e-03  8.6705381160080253e-02  9.5152822398341622e-02  3.3983058551734203e-02  3.9586160430392769e-03  1.2081227655775462e-01  5.1823159402597614e-03  1.0830555609770751e-01  2.6004550531807842e-03  2.1959979935296040e-03  1.9165946612091777e-03  1.0273417054136709e-01  -2.9220153119028755e-03  9.6303962515901551e-02  1.0624683334804035e-03  2.4384937101266338e-04  -4.2993310521109333e-04  6.4776404391870459e-03  4.4742215455230838e-03  2.0565055844168696e-03  -5.3315081020141138e-05  5.4945943520385470e-03  -2.1516534545296592e-05  -2.2108315617737638e-04  7.4829386039525422e-03  -1.5662940799525233e-03  1.1693638852262596e-01  2.6692608042059305e-04  1.0169765030761250e-03  1.6190007285184026e-04  8.5151769494805463e-02  8.8796273516100796e-02  8.7321701434037433e-02  1.0081285507083998e-01  1.0416676880291282e-02  1.0643065067538775e-01  1.8219501115477913e-03  1.0824180988226542e-01  1.0528284559097303e-01  2.2661514278970547e-03  3.1000251332734658e-03  4.1708610241741086e-03  3.5708792488538185e-03  1.0203409379258593e-02  1.3610595562557211e-03  4.8594582654076651e-03  9.0124666693639323e-04  1.5826201999689779e-03  6.8261338435261304e-02  -1.0895851965599973e-03  1.4709871936220466e-03  -9.8481750454030862e-05  6.1804623324442027e-03  2.1900577958954004e-03  2.8679395610212493e-03  3.0570930304039029e-04  2.9619292361308890e-03  2.8057901161502668e-03  4.7434294458303270e-03  8.7449421357627427e-02  1.0134020349018817e-01  1.2847032520765114e-01  7.3447804571162827e-04  4.8434064686838129e-03  1.3953691488573818e-03  2.0483183467315271e-03  8.5621706464273999e-04  1.6948124282831294e-03  2.1301568644962808e-03  2.9832981406455435e-03  3.1354269427955328e-03  1.4451849898351652e-03  8.0967303345300987e-02  -2.0882663912000655e-03  3.3186387979577464e-03  8.9040997651791895e-02  9.0046281416873448e-03  5.1162337236850481e-03  2.1246613059405085e-03  2.1671600671728723e-03  9.6879345781532777e-04  6.7762686625364192e-03  1.0171246376870964e-03  5.3119913999991842e-03  5.0029362559720209e-03  4.1931714742996255e-03  -2.1829211016481391e-03  1.1799748080960584e-01  1.0610903249053377e-01  3.1674840326572844e-03  9.1779883657848145e-04  3.0750339336653673e-03  1.0623601252399383e-01  1.9735226117145251e-03  2.3030632858795303e-03  4.5724761250067046e-02  5.8146970481907916e-02  9.2520099966025504e-02  4.2895432263896178e-03  7.0242043788786295e-04  -3.1564153237170419e-11  1.8622113900913135e-03  1.0326222049426967e-01  1.8489711992625555e-03  7.5151261224290083e-02  8.6545869419258889e-02  8.2394672648779463e-03  1.1001659249506470e-02  -1.3535934727593290e-03  -3.6876792245356697e-05  -8.1668343135192229e-04  1.6758073025725567e-03  6.0146940708031920e-04  1.0652342432462957e-03  2.7393045688207623e-03  2.0410134517643802e-03  7.5094673044351357e-04  1.9694904983070057e-04  5.4177489161814528e-03  1.1057233383410634e-04  9.8174847848488795e-04  1.0744727540732335e-01  2.6882812956225744e-03  2.5983726580337493e-03  -3.0566891646720078e-03  4.9295366530788297e-03  4.0115577645539521e-03  1.0775289206092997e-01  4.2584081920955905e-04  1.2072130127434552e-01  3.2850683601372090e-03  6.4232544399739763e-03  2.1153262946388058e-03  2.2885866031498239e-03  1.2263798308639708e-01  1.0451529821788071e-02  5.3217179328873552e-03  -1.9644058402995022e-10  -2.5859675856432372e-03  1.3723851745337265e-01  1.2617691499296334e-03  1.7019988762947497e-02  2.9217606574589408e-03  2.5292186142149256e-03  1.1213070408327970e-01  -1.5647518794015415e-10  -2.6473217120731200e-11  1.2376276616027083e-01  4.8712111253822561e-03  8.7272088894323966e-04  6.1797003507559436e-04  2.3216660336901613e-03  7.8940782099959726e-03  5.9331007133935952e-03  -7.2343274875434778e-04  4.2154146971741932e-03  1.1754925885842549e-03  4.9908849540949366e-04  9.1039930402449318e-03  1.9185156255865483e-03  8.7303064619773834e-04  1.7281438337258329e-03  -1.4097910337783955e-03  1.8548385036608835e-03  1.5742181893250839e-03  1.5320097978328926e-03  -9.5305282902434767e-04  1.0952075269095493e-01  1.6775534277619355e-03  9.5871188579970693e-02  -3.3257995482993853e-04  8.8502903768371700e-04  1.3974592880314227e-03  -1.0694483712025716e-02  3.6192772204101131e-03  9.0415985728591261e-03  3.4852583822465720e-02  4.4924289134447076e-03  4.1226598893090256e-03  2.6726343155619352e-03  1.2367731657570608e-01  1.0724166689692434e-01  1.1617371686642849e-01  1.0230156555718022e-01  1.0994259595307515e-01  1.0618955477674362e-01  5.0442959172431754e-03  9.1686642992247325e-02  9.1797282093729241e-02  9.2843190861257641e-02  5.1990493595333387e-03  1.0623640654866891e-03  1.6150473301760981e-03  1.8488507146310602e-03  3.3772507078712543e-03  2.3545131554565772e-03  8.2767535514001719e-02  7.6921029993769719e-03  1.2738866051032674e-01  1.3221640354799871e-01  1.4734123774428182e-03  1.3126654413218540e-03  9.2902058592942774e-02  5.2343587491648974e-03  2.7587011240574289e-03  8.9311203212273746e-02  8.4532356571905332e-02  8.5850046365895841e-02  4.8257269665079300e-04  1.3710171374365849e-03  1.6742227750016735e-03  1.3954379341534963e-03  6.1459948347130863e-04  3.1202638728820438e-03  9.7859446907345750e-03  4.5522204698463485e-03  3.9016564654637417e-02  1.4094164892087385e-01  1.0785721406011282e-01  2.6303280380500045e-03  2.6326488413881124e-03  -6.4815117086568610e-04  8.9504622560556371e-02  9.1412371822842037e-02  -9.3058620084725090e-04  1.1265239542841371e-02  5.3265600888050104e-03  1.6027450993270152e-03  2.8051737703515272e-05  7.1565192789202524e-03  6.5892070382778112e-03  4.6484592757812528e-04  5.3003053085180676e-04  1.3057858262908101e-01  1.3337089845651262e-01  1.0794095959095172e-01  1.1371655482063789e-01  -5.9788565811314160e-04  -2.8014306258564517e-04  3.6428895024044898e-03  4.4915138055905560e-03  3.4693809954879102e-03  8.9067952895883873e-02  8.1863988151090750e-02  1.0124186550862012e-01  1.1195187083992929e-02  3.5899064589214416e-03  1.6081080010957362e-03  1.3766904684837505e-01  3.4897583653340869e-04  5.2119035876554550e-03  5.2185261426953636e-03  4.0431813831620757e-03  1.0956224299829359e-01  1.6651573274154567e-03  9.7100392311629466e-02  8.7104423318798030e-02  4.1415378061744152e-03  3.2105755666720576e-03  8.9792144759865300e-02  1.2600803870312736e-03  1.0509917935959625e-02  1.8512206216525899e-03  1.0303228325591232e-01  2.2622558039391669e-03  -8.8288337314436718e-04  1.0804724337559754e-01  1.0155569730293509e-01  7.8092477718182035e-02  -6.6335788720218983e-06  6.6210833882557370e-05  8.2986977156662700e-04  -2.0364414986602492e-04  4.6947622535389470e-04  1.2804502679099297e-01  3.2384003384782422e-03  8.0173352065241607e-02  9.6374550736025619e-02  -3.3528238709216681e-04  -4.2640350056555015e-03  2.2298506633319577e-03  5.3759162113965878e-02  4.4113435409955338e-03  9.6721862657788135e-02  3.5776849958148349e-03  3.1809239481021398e-03  2.8201504248314383e-03  8.7156456960269205e-02  1.0168660294934082e-02  1.4951612301493497e-03  6.3571124463008572e-03  2.5971684855089302e-04  -3.7874354790492593e-04  7.8741994693815980e-03  7.7257690574336268e-03  8.5931094324382215e-02  1.1534003339189071e-01  2.2287677855466464e-03  5.2065670046813478e-03  8.7899150220711930e-02  1.7442750450884345e-03  1.2437825135434873e-01  4.8318054704668979e-03  -1.5169709356608681e-03  -3.2201863820045654e-03  2.3613731965134277e-02  6.0330174244963347e-03  -1.0563754176479796e-02  1.8242871317151535e-03  1.8334399368485734e-03  1.7353593610407727e-03  1.0812671470203739e-01  1.1039410495292310e-03  7.4610448110019921e-04  1.2226825238517191e-03  -1.5037693602245475e-04  1.1231446246975519e-02  -3.2913859867444252e-04  -1.1523020324919050e-03  -1.9133705455840755e-03  -2.2504389522553256e-04  5.1775808660804072e-03  -1.8757776538985457e-04  5.6042269028637451e-03  -7.8876997044111411e-04  3.4251160133686644e-03  4.8449893193583584e-03  6.0075327431984476e-03  1.0317072928614046e-03  2.5484957572872945e-03  8.3651373092671635e-02  -1.6580897659060219e-03  -1.4113316435522760e-03  2.1638042496467782e-03  4.0093667685730527e-03  7.7437557623834762e-04  5.0636369505059186e-04  3.1921176673882518e-03  5.6885357700340684e-03  1.3074354148916202e-03  8.0816248390531406e-02  8.3775405350651172e-02  1.8701368244657889e-03  4.0392215596606555e-03  8.8025867440758479e-02  1.7343454248675786e-03  2.1850214452208147e-03  6.8001240164866747e-04  1.1835941050846218e-03  2.2379095991424151e-03  -1.7738310710893126e-03  1.0292041446393447e-03  4.4930144748585050e-04  5.4004068521348982e-03  1.0933846053851358e-02  1.2654215194388876e-03  6.8878923055095981e-04  1.2753342432795579e-03  -1.7219279090156526e-04  1.3256647718755135e-01  1.0905418266528967e-01  7.0523847872270944e-03  2.4932238109708158e-03  1.0358470561235618e-01  -4.3175496197495385e-03  4.1162052622113396e-04  9.2108521045582885e-04  2.9953097845870414e-03  1.2130251371015473e-03  -1.8354699416810378e-04  3.6797915250834988e-03  4.6028663323931934e-03  -1.8328463389280911e-03  1.2509500693685439e-03  -7.1057146976330433e-03  2.0911509352112185e-02  3.7980012694313484e-04  1.8339619379589556e-03  1.7324666721187764e-03  2.8595382086775431e-03  2.3759458437556864e-03  3.0254928803493484e-03  2.5120078384326212e-03  2.4406509566787839e-03  2.5974902250304431e-03  9.4326436607832895e-02  1.0380039663637099e-01  4.5338310465095257e-03  9.2182543041187794e-04  2.7706930701637479e-03  3.9363219835365053e-03  4.4272804200893320e-04  -5.6864826828843622e-04  1.7878276977112365e-03  2.1006742370749867e-03  4.6926673472568623e-03  2.4416262019904072e-03  2.0381804251916225e-03  6.9398060993615168e-04  3.2517710259990047e-03  2.8633400983524198e-03  2.4869780576156466e-03  9.9982342835774590e-02  1.0605781126402737e-01  -9.3356020087623584e-04  4.0957078796970909e-03  3.9790366165302926e-04  1.1519918602002760e-03  3.7848884760182380e-03  -9.2801570386132645e-04  8.5355611456244818e-03  1.1489950024944388e-03  5.4384493275727169e-03  1.7919122230486073e-03  5.3246591811883411e-03  5.0199695934321728e-04  1.7499058257430323e-03  4.4579135802465708e-04  1.0748161954888444e-01  7.5473995696124813e-02  1.0455281691704062e-01  9.6636837709012977e-02  1.1781574642226698e-01  1.0812618329425552e-01  1.0453162129640102e-01  1.0810334888880350e-01  6.2435112479214454e-05  5.0533040732189888e-04  5.8991675423010724e-02  1.4077523378553114e-02  2.3707054091796249e-03  -1.0374288983157358e-03  1.1348023089510940e-03  9.3795445262007116e-03  2.5111316903952781e-03  4.4699079580744997e-04  4.8828467114270096e-05  1.8586022033444027e-03  3.3908193251279118e-03  1.2727322787342508e-04  5.0237321173128690e-03  9.1030043521674278e-02  7.1239023735098161e-02  4.9501993601418479e-02  -4.7059860753973583e-04  2.0868294800462047e-03  1.2515595075530420e-01  7.3098266021891095e-03  -8.6414531980426779e-04  1.0648867102841723e-03  2.8410437187304537e-02  9.0044137805579100e-02  2.1939234972594233e-03  2.7429454193894395e-03  8.1721532485894255e-02  3.0327489854608623e-03  9.1514991718305040e-04  8.6595501093226872e-04  3.0102491366597898e-03  1.5559321048981573e-03  1.6993183392251671e-03  4.7915120591990028e-03  4.3536863075950881e-03  1.4421501159848215e-03  5.1864530925442047e-03  3.9963154809901395e-03  4.2578707924455549e-03  7.5913041281534636e-04  3.8522440249752444e-03  1.1748339419136783e-03  9.9468335621353196e-03  1.5193578502917112e-03  1.2755131363809671e-03  1.0085386495623030e-01  6.7561610663500235e-02  1.5961108327940997e-03  -9.6105100348113550e-04  2.1909527612115347e-03  3.4061992469866386e-03  3.3552466411023271e-03  3.1974797472873210e-03  1.5125269164585201e-03  1.1531453644356059e-04  2.1421568875275294e-03  5.2855358932650358e-03  1.0247568064667029e-01  5.0967475863359056e-03  4.6683061165307647e-03  4.5920543850429089e-03  2.5098141701721094e-03  1.0712931406853467e-01  3.9870029115866954e-04  -3.9095920106874517e-04  8.6340781865793994e-03  8.4331219503620602e-02  -2.1668271848196211e-02  9.9398131267416472e-03  8.4957999277193719e-03  4.1620279229070316e-03  1.2759585633579737e-01  1.8015462094140000e-03  -2.4121297641170603e-03  2.4560989026489268e-03  1.9658688367436348e-03  1.0663546558575690e-01  1.1322538231261445e-01  5.8175805117589140e-03  2.2334047394841241e-03  1.3208177171623628e-01  1.0765103561808767e-01  4.6300012080356485e-03  1.4946630753282612e-03  3.6637060935370692e-03  -1.2384834771968030e-03  1.7770338277408697e-03  1.0779387363563072e-02  4.8608895733788402e-03  3.1043604318818042e-03  5.2246955917738215e-03  1.1270918774426873e-01  9.9728685800360581e-02  -7.9747601507801098e-04  4.2453444991515896e-04  2.0486412523872989e-03  3.2987018042850825e-04  5.6285748318235292e-03  1.0270078535171936e-02  1.0006932021926509e-02  5.2638019249784465e-03  4.9569792041759030e-03  1.3035643672373166e-03  1.1190779177773566e-02  3.1655178023270005e-03  1.5768907643127938e-01  1.0782552931242137e-01  8.2953888427072520e-03  3.1302441807466480e-03  -5.2773535963367181e-03  1.0127005582909916e-01  3.3738162301443953e-03  1.2345982285742107e-03  1.0946963588058062e-01  8.3419172519345303e-02  2.3956624012211247e-03  1.0981991764108866e-01  8.8746115598042380e-02  2.6853645169360799e-03  -8.8480295659464185e-03  1.5895392810689284e-02  5.0428442165520067e-02  -8.6555867399998689e-04  5.0220263645341569e-03  9.9963348824813462e-04  1.1261232405989513e-03  1.2045815744543638e-01  3.9938957071889237e-03  5.8362713325909037e-04  7.8164483669574993e-03  4.4647803857611815e-03  -1.5647518794015415e-10  9.0090572213636269e-02  1.7367881509518291e-03  1.9444117499624668e-03  5.0174585863779776e-05  1.4508865476039548e-03  3.5673706083374124e-03  1.0953244593652812e-01  1.2470602543675847e-01  4.1005448224824375e-04  1.7606774236359761e-03  8.5773034409701562e-02  9.9439889091031214e-02  1.2185982301436363e-01  4.0589564169960226e-03  2.8748090070227677e-03  2.8798705065396974e-03  1.2935132658002497e-03  2.8133700358075383e-03  9.5217911025734115e-03  4.6790915875933913e-03  1.9197786297734472e-03  1.1358335162693013e-01  2.6932604204736210e-03  2.4176737039466214e-03  1.6271980694997816e-03  4.6564161341531539e-02  9.0326403719427961e-02  8.2180579665773940e-02  3.9654488286065374e-03  1.1203637453140920e-01  1.4581530759195991e-02  6.1986973486496165e-03  -4.8935449696690366e-03  1.2061454399421938e-03  1.2411870399568474e-03  4.5818126733859505e-04  -9.9806377691182463e-11  1.3384400062356971e-01  8.7595919677093084e-02  2.7457293910940713e-03  2.1404445669308513e-03  1.7074312132915998e-03  3.0463136909545047e-03  5.9767941671532709e-03  1.0231944388122395e-01  9.2847340527505984e-02  1.6033025799618884e-02  2.5616296408935775e-03  6.3910668036768536e-02  2.1700529300197865e-04  2.6630103397847810e-03  7.5774499588118415e-03  3.2075190436682234e-03  3.0798724237001120e-02  7.3534676188963559e-03  4.3380626189243460e-03  5.3758521585623243e-03  8.2144928944917343e-04  8.8396349402617097e-04  3.6911586344609782e-04  8.0040766128272267e-02  5.2974400506439645e-02  4.2241559982098302e-03  2.9470760860657503e-03  -5.8544344636565892e-03  7.0659958985075833e-04  1.4408868939813193e-03  5.8145745343367340e-03  4.9336138638383003e-03  1.1640969573271742e-01  8.9612460459489295e-03  -1.2512396825580506e-03  -2.9710932161083962e-04  1.0790237082415648e-01  1.2235557128733407e-03  8.3559284298614520e-02  -2.8695252756789011e-03  1.0294968436591651e-01  3.3259011688821583e-03  1.6165804403744480e-05  8.8750263990810489e-04  8.9177285268809539e-02  -1.0583570034202808e-03  1.2348441990678378e-04  -1.5647518794015415e-10  1.8014563357534928e-03  1.8021591294708817e-03  1.5670384577081836e-03  2.5328133223149712e-03  9.0119839915237768e-02  8.7787997390524022e-02  2.9603335619812622e-03  -4.1560581797703272e-04  2.8719333800569847e-03  1.3800799623715509e-03  2.7773755618698227e-03  1.5187474561390126e-03  2.7860782153069771e-03  7.3842269305874911e-02  3.0132825381247556e-03  -1.8616387430973947e-03  -1.2443179863512021e-03  6.4635655209175609e-03  2.2915542668528015e-03  2.1438104482287227e-03  2.1051515888136059e-03  4.6069969094412995e-03  5.3761574315123106e-03  2.8578217759961614e-03  2.7361901969269586e-03  1.0023049877764492e-01  1.1007515628300403e-01  5.1360789529894171e-03  1.1695994005045793e-01  1.0609438946294798e-01  5.1532780824499851e-03  1.3236992313530483e-03  7.0885953361362317e-04  2.4164662583455124e-04  2.9102321509468097e-03  8.2639024979616171e-04  1.8217402195245499e-03  7.7555261203517925e-02  3.5740466410573825e-03  3.2963927644483752e-03  -1.2994060906040662e-04  8.1190503710857967e-02  -1.2240701383526226e-03  4.8146296950049034e-03  -1.6090715500385749e-03  1.1949673969214911e-01  1.0846380170037495e-01  1.9662203531457837e-03  1.8817063266682379e-03  1.9552808572963929e-03  9.7321405608780422e-03  6.0864839697104354e-03  1.0776172561734799e-01  5.2103706565680063e-03  9.2732744463695838e-02  1.2717899453155686e-03  6.9735784175036813e-02  7.7247443716616133e-04  4.5443182779097693e-03  4.6116794898572481e-03  1.0696264361691357e-01  3.2223461361641239e-03  1.3243165888802929e-03  1.1699432686166852e-03  1.0596309