<?xml version="1.0"?>
<VTKFile type="UnstructuredGrid"  version="0.1"  >
<UnstructuredGrid>
<Piece  NumberOfPoints="1404" NumberOfCells="2604">
<Points>
<DataArray  type="Float64"  NumberOfComponents="3"  format="ascii">0 0.41 0  0 0 0  2.2 0 0  2.2 0.41 0  0.2353553390593274 0.2353553390593274 0  0.25 0.2 0  0.2353553390593274 0.1646446609406726 0  0.2 0.15 0  0.1646446609406726 0.1646446609406726 0  0.15 0.2 0  0.1646446609406726 0.2353553390593274 0  0.2 0.25 0  0.6923879532511287 0.188268343236509 0  0.7 0.15 0  0.6923879532511287 0.1117316567634909 0  0.6707106781186547 0.07928932188134523 0  0.6382683432365089 0.05761204674887133 0  0.6 0.04999999999999999 0  0.5617316567634909 0.05761204674887134 0  0.5292893218813453 0.07928932188134524 0  0.5076120467488713 0.111731656763491 0  0.5 0.15 0  0.5076120467488713 0.188268343236509 0  0.5292893218813453 0.2207106781186547 0  0.561731656763491 0.2423879532511287 0  0.6 0.25 0  0.6382683432365089 0.2423879532511287 0  0.6707106781186547 0.2207106781186547 0  1.1 0 0  0 0.205 0  1.1 0.41 0  0.55 0 0  0.55 0.41 0  0.275 0 0  0.8250000000000001 0 0  0.275 0.41 0  0.8250000000000001 0.41 0  0.6875 0 0  0.61875 0 0  1.65 0.41 0  1.65 0 0  1.375 0 0  1.375 0.41 0  1.925 0 0  1.925 0.41 0  1.5125 0.205 0  1.7875 0.205 0  0.9625000000000001 0.205 0  1.2375 0.205 0  2.2 0.205 0  1.99375 0.2152743902439024 0  0.4125 0.41 0  2.0625 0 0  2.0625 0.41 0  2.2 0.3075 0  1.7875 0.41 0  1.375 0.1486128048780488 0  1.5125 0 0  1.7875 0 0  1.5125 0.41 0  0.9625000000000001 0.41 0  0.4125 0 0  0.1375 0 0  0.1375 0.41 0  0.6875 0.41 0  0.9625000000000001 0 0  1.2375 0 0  1.1 0.1486128048780488 0  1.2375 0.41 0  1.65 0.1486128048780487 0  0.823495464168302 0.2603780552348366 0  0.3738707794507017 0.2720196349488618 0  0.3662291281331582 0.1311456406657909 0  1.676715909090909 0.2793064024390244 0  1.126715909090909 0.2793064024390244 0  1.348284090909091 0.2793064024390244 0  0.8287581077665108 0.1302150898054257 0  1.894702181800738 0.1282910975492754 0  2.092797818199262 0.1282910975492754 0  1.85625 0.3075 0  0 0.3075 0  0 0.1025 0  2.099172119769978 0.25625 0  0.4752414543992246 0.3180372603390748 0  1.99375 0.08395950269330846 0  1.459960956013612 0.3075 0  1.569025960719943 0.2986889805672169 0  1.03125 0.3278689922742084 0  1.959375 0.3126371951219512 0  1.749222215368287 0.1025 0  1.275777784631713 0.1025 0  0.9228016959331474 0.3075 0  1.000777784631713 0.1025 0  2.2 0.1025 0  1.225938124459196 0.3075 0  1.550777784631713 0.1025 0  1.44375 0.07430640243902442 0  1.16875 0.07430640243902439 0  0.7562500000000001 0.3358727844323386 0  0.89375 0 0  1.899250267340833 0.2229966846119207 0  0.61875 0.41 0  1.766482954545455 0.2934032012195123 0  1.046078563095834 0.2389031808701145 0  1.421109702350723 0.2261157654379721 0  0.07567171807980319 0.25625 0  0.2511897295290552 0.3235829392832554 0  0.07655002503762308 0.1488653460959645 0  0.1377245246847496 0.3206030474919778 0  0.6694099692696568 0.3242771941727899 0  0.9168971191497528 0.1295727156104653 0  0.7562500000000001 0 0  2.118919042110979 0.3422084711244843 0  2.13125 0 0  0.06875000000000001 0 0  1.30625 0.41 0  1.597888256393107 0.2173787389261347 0  0.34375 0.41 0  0.2493272016354703 0.08091360081773515 0  0.5588896233436766 0.3264056208677571 0  1.829299675393195 0.07400700849299596 0  0.1334079128307869 0.08523463035786674 0  1.71875 0.41 0  0.06875000000000001 0.41 0  1.16875 0.41 0  2.038220665644273 0.332420740103091 0  0.8810647413215221 0.2027360103977071 0  0.34375 0 0  0.7453891198966415 0.2471459041008237 0  0.42112093004955 0.1988123139090554 0  0.8314023090855964 0.3351170841770613 0  0.89375 0.41 0  0.7906250000000001 0.06615386481594063 0  1.452769549894695 0.1548122580621249 0  1.369219062229598 0.07430640243902442 0  1.30625 0 0  1.07420695807087 0.07430640243902439 0  1.720943423819132 0.1714577452753128 0  1.157188124459196 0.205 0  1.304056576180868 0.1714577452753128 0  1.67579304192913 0.07430640243902437 0  1.209670467133757 0.136210026696477 0  0.4312800784902823 0.08036147352247747 0  0.8723959680194693 0.07066860609690805 0  1.025335513626278 0.1700681449722324 0  0.7945632284247136 0.1940204203251442 0  0.378125 0.3452261501101892 0  0.3307109909790086 0.2037165635083759 0  0.3009701032039409 0.2702970083403109 0  0.20625 0.41 0  1.58125 0 0  0.4812500000000001 0 0  0.9838963872396855 0.2722244191167347 0  0.06772484939107212 0.3260067317374387 0  0.20625 0 0  1.58125 0.41 0  1.631724228912893 0.3381867502687533 0  1.825608881788174 0.14499488549201 0  1.85625 0 0  1.44375 0 0  1.44375 0.41 0  1.85625 0.41 0  2.13125 0.41 0  0.7562500000000001 0.41 0  0.4812500000000001 0.41 0  1.16875 0 0  1.03125 0.41 0  1.03125 0 0  1.71875 0 0  1.99375 0 0  1.99375 0.41 0  0.9408708167433545 0.0651989315768642 0  1.340625 0.3489494290853124 0  1.134375 0.3489494290853123 0  1.700180620188976 0.3438659752031281 0  0.29668452290037 0.1318471691375986 0  0.3175441051360096 0.06496934809856265 0  0.06509151636162461 0.08140814015999148 0  2.135782184673599 0.07126652247502523 0  1.668441847249787 0.2129203728327609 0  1.295782514339747 0.2378437748815763 0  1.409375 0.3520314716057996 0  2.129248544730567 0.1906135162504124 0  2.060771381434487 0.1989445750470348 0  2.013252586573865 0.1496169464686054 0  1.942766402200229 0.1734448904596831 0  1.895522487186454 0.06076163953489683 0  2.069553871656643 0.06605731020975725 0  0.4670911801404742 0.2498408582391372 0  0.7622743084658112 0.1264100838268133 0  1.274680914880868 0.3520219391081363 0  0.3148669572599245 0.3331753056385887 0  1.614713220494657 0.09473434380863296 0  1.72990325744076 0.2380068107952482 0  1.356580098625191 0.2120393231351682 0  2.034370752044885 0.2668681600792073 0  1.51768709249349 0.3426260931494756 0  1.561883724969884 0.1650446847858835 0  1.197344062229598 0.2523725417393646 0  1.804085235518364 0.3468178408964637 0  1.817887819205233 0.2589243285818559 0  1.905897727272727 0.3485060975609756 0  0.7296439733931823 0.06337466644369745 0  0.4250935971865949 0.1394919578475796 0  0.3773030136511669 0.05130372097998036 0  1.192836486056382 0.3562350748565544 0  1.1029124365364 0.226143510831178 0  1.28257088594801 0.2944411014911587 0  0.1905185804731426 0.06029880676029167 0  1.474860187679412 0.2504218616229368 0  1.406767003493824 0.2829282258560709 0  0.5209826960981064 0.2830664557824064 0  0.5131119502780163 0.3617405848213254 0  0.1948220106098172 0.3081993407644811 0  1.845656689180403 0.1998310418452388 0  2.144958525570388 0.2909790873294231 0  2.2 0.15375 0  0.8833025251326762 0.2625402923007629 0  0.171875 0.3653875762360952 0  1.57794966442982 0.3540357145964566 0  0.446875 0.366068291212731 0  0.4272051715206439 0.2891929346190664 0  1.508991196088596 0.1421783375065625 0  1.50436820029908 0.06143401634903343 0  1.223857000523521 0.08235548624535324 0  0.6137904613287555 0.3066826366281556 0  1.153316824384777 0.1289850171317838 0  0.9751573703656133 0.327632618473408 0  2.148922302309752 0.1258841779285271 0  0.9281250000000001 0.3643758685795699 0  1.621993280276081 0.2841214267927899 0  1.550118654119087 0.2461998729100966 0  1.327182649291491 0.1216967252533594 0  0.9939955742738924 0.04663549843168518 0  1.753125 0.04556020050186112 0  1.271875 0.04556020050186116 0  0.9734326767716519 0.1506854560854393 0  0.103125 0.3675775577080512 0  1.94956388244759 0.1180512551534177 0  1.949997712993411 0.04965831614304109 0  0.717433898748555 0.295596016333797 0  1.771961817615021 0.1530278789497521 0  1.909246823951428 0.2812757146784527 0  0 0.35875 0  1.050632804931928 0.1226269704412814 0  0.05695108326502596 0.2024009637347154 0  1.948575539857022 0.2445328248721197 0  1.697271520964565 0.1233917627620729 0  1.065625 0.3689344961371042 0  1.085849084308977 0.3170853572226867 0  0.1015495998772944 0.04226029099983852 0  1.577403511714593 0.05463601888079143 0  1.751571320346033 0.3651102912045228 0  2.2 0.35875 0  0.7441773632462837 0.1786786606458751 0  0 0.05125 0  1.466879772203159 0.3611261772912453 0  0.6282230348858767 0.3577675483994025 0  1.990280163552011 0.3564754268533217 0  1.17471064520912 0.2990917256188288 0  0 0.25625 0  2.2 0.25625 0  2.2 0.05125 0  0 0.15375 0  1.853978576207987 0.35875 0  1.515638456102889 0.2882700110184686 0  2.150453692751374 0.2387066338105111 0  1.323782677156475 0.04897634338873398 0  1.409375 0.03715320121951221 0  1.406484531114799 0.1087852750766809 0  1.134375 0.03715320121951219 0  0.721875 0.3729363922161693 0  0.7941695928236929 0.3696489254637395 0  0.7934827162619036 0.3013409431456604 0  1.627401732573545 0.04552157221025036 0  0.9352049974617431 0.2507047965699472 0  0.8763260682738339 0.3611103317460093 0  2.045405893604797 0.1105340662939892 0  1.255408269734577 0.1577307500159216 0  2.028125 0.03707597992059326 0  1.003030137506755 0.3689344961371042 0  1.248258025468107 0.2565907092181813 0  1.203125 0.03661323374043041 0  0.4800125512335631 0.0549472816999725 0  2.072662025974815 0.2975086504196739 0  0.240625 0.3729825336867542 0  1.113252391110535 0.10238286244357 0  1.071052763974265 0.1885202618768825 0  0.8738809401657862 0.3106483608284829 0  0.6786819423003397 0.2677558482644021 0  1.887722846421017 0.1760882698830035 0  1.472640588990488 0.1118278026240017 0  0.5843750000000001 0.41 0  1.865937103925594 0.2604137786483804 0  1.463913572748262 0.2030442564990043 0  1.376426316059077 0.3186741374914345 0  0.1038643885363755 0.2162701735320032 0  0.1769473813227781 0.1070849728467114 0  0.458787839809176 0.171541653775316 0  0.240625 0 0  0.04179569703428024 0.2877217852556549 0  0.1258346557601885 0.2699740073054968 0  1.722140693354707 0.282908100935778 0  0.41206179117512 0.2448172567039922 0  0.3702471778075604 0.2265217604228704 0  0.3714881805374215 0.1786967818665642 0  1.77397096061971 0.2481483237422926 0  2.105123889160691 0.03743885948498647 0  1.001138337938679 0.229719337663998 0  1.051242910646791 0.2854826559431138 0  1.395420985247586 0.18
[...]
<PointData  Scalars="f_43"> 
<DataArray  type="Float64"  Name="f_43"  format="ascii">1.0682899628056820e-01  2.0292730969944664e-01  4.9930424635782640e-11  1.2546196613063437e-10  7.9754411098683503e-02  8.0879724940979753e-02  6.5967684102534660e-02  6.2566739141742933e-02  1.3494368058398867e-01  1.3747949469848922e-01  8.8561168541658589e-02  7.0722241347361894e-02  -6.5349432252634516e-03  -2.4315361738292611e-03  -4.1826694325831498e-03  -8.6321906575214571e-03  3.5328339560534508e-02  6.9790886469841412e-03  -2.4720762321701222e-03  8.9130377430661323e-02  1.4500722803429783e-01  1.4262046126155653e-01  7.6932796762878064e-02  1.8387556709266614e-02  -1.8738376004901271e-02  -3.7095497434446033e-02  -2.9309700864297194e-02  -1.3438428863617419e-02  1.8066963731891685e-02  1.1709250511539374e-01  1.3712971673572756e-02  6.0493266181952693e-02  4.7638071557108072e-02  9.9882582034607939e-02  6.4166854391952376e-03  9.3584306186638697e-02  5.1082567602578430e-03  2.1083765471869090e-03  1.1439857350258664e-02  8.3103947095990779e-03  8.3319335847775768e-03  1.2745749957163639e-02  1.2224999345602039e-02  4.1634928970917459e-03  4.1635631975630895e-03  1.0404193014681873e-02  6.2420648643298111e-03  1.5682172151088053e-02  1.4550314375577829e-02  9.7739669012011024e-11  3.1208251989522573e-03  8.1450266084838380e-02  2.0792072056323289e-03  2.0791507980189800e-03  1.4951027302705545e-10  6.2362176247808473e-03  1.2607275573603076e-02  1.0474985244672146e-02  6.2495594032865500e-03  1.0335595003022077e-02  8.9902484424833479e-03  1.0457079807743523e-01  1.1235312105637928e-01  1.0590698362753842e-01  9.0919278422671411e-03  1.6405286511424557e-02  1.5345744032660511e-02  1.7425895169036396e-02  1.3714366085642141e-02  8.3340046087546516e-03  -2.0341298550102605e-03  9.2351194450518911e-02  9.8108306657652800e-02  7.9120315242254078e-03  1.4976957980388322e-02  1.2693492444519372e-02  4.8578077161264685e-03  4.6188727004209057e-03  1.6226279085915529e-03  5.1978649825303288e-03  1.0783796130948681e-01  1.2723117972267670e-01  1.5234405693040766e-03  7.2327257709776063e-02  3.1205335941785427e-03  1.1106078117833963e-02  9.5194944965196725e-03  1.2729663970616631e-02  3.6402341649919502e-03  6.8267301933411049e-03  1.4437569126825511e-02  9.1374115793909118e-03  1.7841853223999275e-02  1.0510819185609058e-10  1.4017423961316172e-02  9.8644582769837220e-03  1.1570146815299985e-02  1.6665015196348200e-02  3.6155988129170768e-03  1.1624297940729585e-02  4.5502035496588749e-03  2.3212929152224140e-02  6.5540783835161239e-03  1.6492798525559692e-02  1.1754483520206088e-02  1.1240728894189710e-01  8.9726059916802395e-02  1.2723729591803432e-01  1.0400811940380399e-01  8.3062599011172501e-04  1.2657000679534425e-02  2.4478004269398094e-03  1.2265200293099816e-03  1.0311031309501279e-03  1.2649205165227151e-01  1.3058392359278297e-02  9.1078317535934795e-03  8.7343273492884357e-02  9.3245773741380850e-02  3.1882157221436939e-02  5.6138034155578517e-03  1.1908375015015482e-01  7.2777449798014432e-03  1.0702425180047537e-01  1.4047767061090250e-02  2.4492431955854452e-03  4.0754846767968389e-03  1.0126896557728711e-01  -5.6296028315810731e-03  9.5721817278103583e-02  5.7896210121102512e-03  6.3068285275058710e-03  5.2350974734840395e-03  1.1365944657192002e-02  1.2823495252232602e-02  1.3991697845934115e-02  1.8214718035971262e-02  7.2521949997002089e-03  1.5776604299222265e-02  1.3682320641087641e-02  7.9457800072072066e-03  1.5496989470289938e-02  1.1340185289433587e-01  9.7315473407924864e-03  1.8098990370821487e-02  -4.1930337901683271e-03  8.6320285560783708e-02  8.5725332879075369e-02  8.6489443038055724e-02  1.0117231650715200e-01  9.3991071743561843e-03  1.0482528684737538e-01  1.4121368917805976e-02  1.0727259531438930e-01  1.0380614011194440e-01  9.3248457253184581e-03  8.5830155489552799e-03  5.6668066252326408e-03  5.2006184429536943e-03  1.1586565990076011e-02  1.1311344394977508e-02  5.1970293404149806e-03  1.0333099756569175e-03  5.0412938426363865e-03  6.9628187195856436e-02  1.6789610218328071e-02  1.2032743562262324e-02  1.8407670006717627e-02  7.2861693750570023e-03  3.1161126056190118e-03  3.1200935128068799e-03  1.4796379231025463e-02  1.2678108766800230e-02  1.4140902855867454e-02  7.5560408602934302e-03  8.4257084148512781e-02  1.0015421583473934e-01  1.2705998922006756e-01  9.7173844432458015e-04  8.0438489323579748e-03  1.3535954685606975e-02  1.1783573378806112e-02  1.0687490920613589e-03  2.1046827113755939e-03  2.8239012043781197e-03  3.8898598970971265e-03  4.6054212341274502e-03  1.9732784035979513e-03  7.8962658613568881e-02  3.8152194411257713e-04  1.3413530066667021e-02  8.9351942948052668e-02  8.8791890660817573e-03  7.1120467138329688e-03  1.2742181809385926e-02  2.5062149058277319e-03  1.0261917626244470e-02  9.6732085842508534e-03  1.4710666299317292e-02  5.9882025723008428e-03  5.7784761062656025e-03  4.4503577475608980e-03  2.2852037810454449e-03  1.1610722271874248e-01  1.0430595728540625e-01  1.4039390870349859e-02  1.6244667407903996e-02  1.3476025867161545e-02  1.0454426462407625e-01  1.0934707577571774e-02  1.1880649787663029e-02  4.2627981649817501e-02  5.8827738258990514e-02  9.1768201814312125e-02  5.3604368679563592e-03  8.3109891047681629e-04  -1.6904336004108373e-10  6.0425601858987406e-03  1.0262832595659215e-01  9.3786541410353277e-03  7.6436786552212907e-02  8.7816915731424000e-02  1.0496263120216700e-02  1.0601485854102423e-02  1.5512900347502264e-02  -2.7353902494988550e-03  1.6619854664076710e-02  1.0458187404545835e-02  7.7326863580646371e-04  7.6694603919703350e-03  8.7326273249153843e-03  9.8177732506923177e-03  1.3463279630089742e-02  1.7435666283949561e-02  6.7692061971297828e-03  1.4636905957259132e-02  1.6921053723442429e-02  1.0622448216211103e-01  3.7882453897586390e-03  3.7807864426767971e-03  -4.4212344364857143e-03  6.4804599479294858e-03  4.3971932947301090e-03  1.0677353227629346e-01  1.8245034529574652e-02  1.1971320592959570e-01  3.8026134054085213e-03  7.6130203247264635e-03  1.3138713594381410e-02  1.4183427266051518e-02  1.2114766831248028e-01  9.4597400958165486e-03  6.7806211175566256e-03  1.2546196613063437e-10  -3.4614549055727610e-03  1.3586658527571452e-01  1.0985405852453710e-02  1.6575260850618723e-02  3.1732527180773008e-03  1.4471240616455806e-02  1.1128180698586422e-01  9.7739669012011024e-11  4.9930424635782640e-11  1.2262111924173408e-01  5.2330448082086208e-03  1.0310588289427358e-02  7.4923202011754810e-04  1.3652440833253012e-02  1.2157478666385061e-02  1.2156454310682140e-02  1.7440577917103076e-02  6.9663614801771471e-03  6.0098146008652721e-03  8.9329964704853038e-04  8.6878016683020406e-03  1.2334880634826373e-02  6.6837064005831033e-03  2.3390798338827241e-03  1.4553270809784434e-02  2.6034558048671102e-03  1.0885106890726932e-02  1.4066871747633198e-02  1.6043321362181579e-02  1.0683250402440324e-01  1.9274494447125720e-03  9.6340469022595576e-02  1.7567450344296239e-02  1.7413569660313571e-02  6.7262567894522864e-03  -1.3549896198430993e-02  4.7238227722298555e-03  1.1084987330891569e-02  3.4649641770496266e-02  5.0524601434905570e-03  1.1142096410663313e-02  1.2250638486181627e-02  1.2275056110958056e-01  1.0498976109995370e-01  1.1357888096097335e-01  1.0090888604796650e-01  1.0910925538960917e-01  1.0543201660981714e-01  7.2256879753166353e-03  9.1520977107538981e-02  9.0440653913978958e-02  9.0700044106582806e-02  6.4451728787855329e-03  1.4358597590463178e-03  1.6728145347192004e-02  1.4741235087479231e-02  1.2202966192515964e-02  2.6034825608577381e-03  8.2143077888661903e-02  9.0508877005229197e-03  1.2610518089116221e-01  1.3056828713252205e-01  6.0195098426105511e-05  7.2365374660629134e-03  9.1992973358997324e-02  5.8664837091712916e-03  3.1694431756679742e-03  8.5826947704293055e-02  8.1249271763773445e-02  8.3870254076587436e-02  5.6510940250438166e-04  1.5629517869138626e-03  1.8847761618084660e-03  1.3390475834017404e-02  1.6019263299819363e-02  8.8253428943299694e-03  1.0775505026440254e-02  6.1555072403466880e-03  3.8785300950145943e-02  1.3292205009793212e-01  1.0580414523103057e-01  2.9343038159522741e-03  1.2279887723099110e-02  -3.1178436069159402e-03  9.0198373653414848e-02  9.2031705099398439e-02  1.5367601154015541e-02  1.1021671982753325e-02  8.6077579117823620e-03  9.8383646198356312e-03  1.8290320287550337e-02  7.8259288184441590e-03  7.4490165555162356e-03  6.1472594490167383e-04  6.1348894881677345e-04  1.2917451582140446e-01  1.3195981588526082e-01  1.0687460759596873e-01  1.1217175427363422e-01  8.8761329621216637e-03  7.1925597388377855e-03  8.5464415654832836e-03  6.0971954718711096e-03  5.0238407713607998e-03  9.0089216850005399e-02  7.8463720664021575e-02  1.0006284182679212e-01  9.9406234605424280e-03  3.8346739418764547e-03  -2.4754444773982805e-03  1.3641230951106278e-01  7.2629857285922304e-03  5.7223864248441949e-03  7.0149457775313794e-03  8.1017052477542831e-03  1.0773799247291908e-01  2.1681079894251705e-03  9.5413828202683335e-02  8.7874827462356225e-02  9.7836976366265770e-03  1.3749524325759242e-02  8.8883203388658752e-02  1.6015614712210863e-03  1.1185305111029907e-02  1.0944456208743587e-02  1.0167740779575599e-01  9.2166014281895269e-03  4.2559853970403428e-03  1.0711217526005021e-01  1.0020789298891293e-01  7.9026404667405209e-02  1.4229424081355208e-02  1.2122954854978172e-02  1.5494582529930823e-02  1.6539742231826755e-02  5.9194027212283447e-04  1.2656307423545451e-01  1.2964637318165616e-02  8.1701549005963367e-02  9.6106594152878047e-02  -5.6621788683572554e-03  -5.0348954384647759e-03  3.1882573428969425e-03  5.2704704159026478e-02  4.6787103731535497e-03  9.5892896360331215e-02  5.1850631647157967e-03  4.6800952146266927e-03  4.1061887005528304e-03  8.5403547268740970e-02  1.0483464340773345e-02  1.5694612299600817e-02  7.3813774145660496e-03  1.8317021722893463e-02  1.8063534071385154e-02  8.1018631812809251e-03  8.2934230348911814e-03  8.2987770983857012e-02  1.1444070818472200e-01  2.4664382096152965e-03  1.1979051089970220e-02  8.9691047465943877e-02  2.9910847758250268e-03  1.2322455425881244e-01  6.3846456300456281e-03  -3.6302233301920965e-03  1.9887749618574479e-03  2.2114561377944705e-02  1.0776576571180883e-02  -1.3357742328086500e-02  2.5311364354193046e-03  1.1366843262907532e-02  1.0375111902568665e-02  1.0721117248721670e-01  2.9902353952306004e-03  6.2086528209393914e-03  9.0993445567448886e-03  3.0789314837897903e-04  1.0204898730855450e-02  1.8443280678258213e-02  4.1984980516643518e-03  4.3845915384184975e-03  4.7064561024434751e-03  6.8492910995814546e-03  1.3961438992825731e-02  7.0783665640000099e-03  1.4013687310956152e-02  1.2769210539028204e-02  1.2999875649689440e-02  7.7842824801791985e-03  1.3172683940566688e-02  3.4214789882973081e-03  8.2493158429197591e-02  1.4940980082575070e-02  1.6039059653103656e-02  9.0236328989780640e-03  8.0463238729967697e-03  8.9479391176365032e-03  1.2465291729256900e-02  8.6474945000187698e-03  9.1570691982616730e-03  1.0084406584189527e-02  8.1886271407720992e-02  8.4573273875028346e-02  1.2794248357659976e-02  5.7255205345785251e-03  8.7381659561617933e-02  2.0725590818469809e-03  2.6146886619168707e-03  1.3830335317053801e-02  1.3808086022055934e-03  6.1648806328068132e-03  -4.7857839965080601e-03  1.2539023339982606e-03  5.5536166263761523e-04  6.4732951287952440e-03  9.9880827478515833e-03  1.7554955523856487e-02  1.8176283139367325e-02  1.7524989427889506e-02  9.5339468319807236e-03  1.3120378876410388e-01  1.0754170272895226e-01  1.2162306056969026e-02  1.3840423641685844e-02  1.0223181044871039e-01  -2.3965545151754491e-03  5.3168677881331122e-04  1.2089744717758005e-03  3.6756646136381268e-03  1.3821912992816616e-03  1.4958286876834233e-02  5.1696503151663362e-03  6.0205184717802094e-03  2.5355790011511699e-03  7.4377479721874900e-03  -8.5055406601035072e-03  2.7991373734874460e-02  1.6841823584029816e-02  1.1882402938258369e-02  1.5319746246213498e-02  1.4057787311165621e-02  1.4002340307034579e-02  1.3034425064628810e-02  1.2661376212321150e-02  1.2242158312583296e-02  1.4461876208235169e-02  9.2463917457241154e-02  1.0239467492350574e-01  1.1650551372169719e-02  1.1825988327119278e-03  1.3941084327516892e-02  5.2326072633709078e-03  1.6913176420908619e-02  1.5318417846204642e-02  1.5176674227944198e-02  1.1783696922630956e-02  7.7871342128589330e-03  3.1277951679393907e-03  2.5859808857991327e-03  1.7980918845131824e-02  3.6264120315634466e-03  1.3406581287556745e-02  1.3867081660045777e-02  1.0002862159851569e-01  1.0502024085664130e-01  1.6758891092707964e-02  1.3353941769928313e-02  5.2507761866202676e-04  1.5467866271256158e-03  6.1964197235805660e-03  1.7494476836148454e-02  1.2163965288088855e-02  1.0822051473785550e-02  6.7579538084542841e-03  1.3076268763574947e-02  6.7677275070456193e-03  7.4356161495756929e-03  1.1776322111128456e-02  5.2156449478989945e-04  1.0581491017289715e-01  7.6892245153138222e-02  1.0284562494880671e-01  9.7433536493455722e-02  1.1635094065725445e-01  1.0681298066436422e-01  1.0416771755729257e-01  1.0697303951514199e-01  5.5539170066498935e-03  4.8755451859343116e-03  5.9953849521707576e-02  1.4392731296297154e-02  8.8246419353624206e-03  1.6067384128997039e-02  1.0641628837823019e-02  8.8713924860654089e-03  3.6388412265756114e-03  1.4649731894660324e-02  1.7771657292618669e-02  2.6011964566005526e-03  3.6344869736946723e-03  1.5056348418560942e-02  7.2933640696490705e-03  8.9898737718348359e-02  6.9480668025774336e-02  4.7478746143643072e-02  1.7694588802948365e-02  2.8637117790362146e-03  1.2361276749021001e-01  1.1614500319560657e-02  1.6024618686408715e-02  4.7251739783132759e-03  2.8262479532468739e-02  9.0410558327632132e-02  1.2978426829012211e-02  1.3183065638791590e-02  7.8279015874827537e-02  1.4241223503590274e-02  9.9709497093155661e-03  1.0612798293331621e-02  4.4207345013004907e-03  1.1356589057621096e-02  1.1541464439173104e-02  7.5420792663772442e-03  4.6527152336287188e-03  1.4900864464775700e-02  7.4670526034313839e-03  5.6181933809302670e-03  8.0435180162818053e-03  1.3402632729984805e-02  4.1442647875911233e-03  1.0581294275251653e-02  9.1345131314699603e-03  2.0959389056187583e-03  1.7061417314187650e-03  1.0040298895363084e-01  6.8780537356156732e-02  8.3700127944616922e-03  5.2085461524761442e-03  1.2717178927331626e-02  1.3727705877959653e-02  4.1692049683037706e-03  4.3206032861266312e-03  1.7233172230892496e-03  1.7922976761543138e-02  2.4251028282957681e-03  5.9800150235317000e-03  1.0127847490971312e-01  5.5362663434891830e-03  7.5963048101028111e-03  5.4045646145241578e-03  3.6134877891660614e-03  1.0599490055517402e-01  4.7863589091703225e-04  -3.8266022844962023e-03  9.5644683724719765e-03  8.5164905552420705e-02  -2.5322958003364898e-02  9.3949519447100224e-03  8.4535598757118271e-03  4.4194129013486530e-03  1.2644220487157287e-01  9.5794770895874758e-03  2.7879983922673652e-03  9.1136312903459440e-03  8.6153884038598465e-03  1.0464519056156919e-01  1.1250738362626356e-01  1.0105868583114063e-02  1.3250882132991262e-02  1.2408675531678830e-01  1.0620807730436226e-01  4.9401525645852776e-03  4.2380371849686750e-03  3.9174290195183991e-03  1.4902819814251836e-02  1.2120794881512064e-02  9.6662757386159447e-03  5.8836402161896676e-03  1.4164322879379410e-02  6.8509125491344591e-03  1.1090654689893058e-01  9.7916039792185813e-02  1.7006808771288927e-02  1.4092522405186469e-02  1.4260406019220944e-02  1.5211729807731016e-02  8.1351105996975582e-03  1.1072368590600160e-02  2.0223765034021741e-02  6.1481164773981136e-03  5.4989661320200469e-03  1.6128451501018018e-03  1.0710237587767707e-02  3.4133640930715057e-03  1.5629955439305959e-01  1.0677940355408599e-01  1.0013682778592771e-02  4.5599302507966216e-03  -2.0498613235384665e-03  1.0038214789421920e-01  1.3282587059926096e-02  9.8108285139693226e-03  1.0713287293841663e-01  8.4928998016276749e-02  3.3235566519144652e-03  1.0897681093434826e-01  8.8608382514481235e-02  1.2605311851785339e-02  -3.7331357133122255e-03  2.1560226906523379e-02  5.0862952801983170e-02  1.4885810432901070e-02  5.4574779819812937e-03  1.4962200560855154e-02  1.5147362375914387e-03  1.1943024084179076e-01  5.6416321804174064e-03  1.4494974783299966e-02  8.6495785896888999e-03  4.8613938205820020e-03  9.7739669012011024e-11  9.0096637660594364e-02  8.1958997426184160e-03  3.1918467251296572e-03  1.8004359123924452e-02  8.7525961640912888e-03  8.3398483937279656e-03  1.0833139187417465e-01  1.2077238143010269e-01  5.3656621252458846e-04  2.0547087501575786e-03  8.4949770530959270e-02  9.8193825787368211e-02  1.1978998111388971e-01  4.5996142474431971e-03  1.2195187561933407e-02  1.1302354482248466e-02  1.0944661216141077e-02  1.0668998803186997e-02  1.1657532338008142e-02  4.9882167189169739e-03  1.4844402739420986e-02  1.1279011704385181e-01  1.2293048323785442e-02  1.1742378163009210e-02  9.2716873650213903e-04  4.6224112325275929e-02  8.9686939658469689e-02  8.1754167940173067e-02  4.9043132188953094e-03  1.1119217453025337e-01  1.1664633654183822e-02  4.6031103486576736e-03  -7.0624069942796606e-03  1.6512100430119483e-02  1.5561961779666959e-02  1.6057101146706703e-02  1.0510819185609058e-10  1.2868803461684239e-01  8.8377507098402433e-02  1.3858916382709639e-02  1.3654493402078463e-02  3.6820513276863021e-03  1.3326297399001425e-02  7.1186981664403248e-03  1.0106713070567441e-01  9.1404939755097392e-02  1.6469563354380025e-02  1.4255825361961684e-02  6.4343867524759846e-02  1.8069226736842126e-02  2.9087140626924482e-03  1.0934094020245049e-02  8.4681682291829694e-03  2.7862618910497114e-02  5.7532612639606224e-03  5.2013990439771125e-03  6.4985883164310606e-03  9.5748203954965246e-04  1.0550434243558871e-03  4.3895458390600268e-04  8.0510023516285570e-02  5.3626087935024533e-02  4.9585009729269710e-03  3.2190318898666381e-03  -7.8416283541939500e-03  6.8638526943375191e-03  1.4129012033429020e-02  7.0298900855438121e-03  6.4489042826040115e-03  1.1550471347762270e-01  9.2177518712534511e-03  1.6055179275467839e-02  1.6995950748354759e-02  1.0670607032229497e-01  1.3088494042363440e-02  8.2021660313229522e-02  -2.0127773030453960e-03  1.0167676660297602e-01  1.3936074066736024e-02  1.4332108676060341e-02  -4.7243634846246248e-03  8.9853794101167880e-02  -2.6733320036460614e-03  1.6932181158939789e-02  9.7739669012011024e-11  1.1561400100071563e-02  1.1948282916068831e-02  9.4123286735392810e-03  8.9478705096161550e-03  9.1561920666309540e-02  8.7514730042679414e-02  4.2299384769527194e-03  6.6527662017107070e-06  3.9197876851981665e-03  1.6690007818562676e-03  1.0144433195072515e-02  9.5941963487942879e-03  9.4425513752815354e-03  7.5048016555181549e-02  1.2619832602618890e-02  3.3823754160594538e-03  1.6088673270934731e-02  8.8161848685441181e-03  1.3545727804547455e-02  1.4671969296717964e-02  1.3813407050943426e-02  5.8081844889188881e-03  6.3618540512158537e-03  4.1924775328091163e-03  3.9992356819194778e-03  9.8010664381573090e-02  1.0923604544935960e-01  7.1445692002161448e-03  1.1549450038315109e-01  1.0451741080406007e-01  6.6761184996205593e-03  1.6116973378652789e-02  1.7604423284856979e-02  1.6229190173113656e-02  1.3990602330220106e-02  1.1047104435825636e-02  1.1532506207049459e-02  7.8752605310574555e-02  4.8806032261368391e-03  1.3635483159368560e-02  1.8302363863391551e-02  8.0605906693484067e-02  -1.7392023145640289e-03  7.7087012105239335e-03  1.5471257088524797e-02  1.1515813036079837e-01  1.0475101249135360e-01  9.1369359134692574e-03  9.5815904808199109e-03  1.3009379212516275e-02  9.0682424404630729e-03  1.2571200042616351e-02  1.0663443167747677e-01  6.8091311942754381e-03  9.2942961802004870e-02  1.0053856099039001e-02  6.5619126725698584e-02  1.0293746334658375e-03  6.0924020677204527e-03  7.6947648966742546e-03  1.0640167148908189e-01  1.2988936581666380e-02  1.1066306202756752e-02  1.0970705669807755e-02  1.0619797992293125e-02  1.0479316268763601e-01  -3.6351316421764507e-03  1.7905