<?xml version="1.0"?>
<VTKFile type="UnstructuredGrid"  version="0.1"  >
<UnstructuredGrid>
<Piece  NumberOfPoints="1404" NumberOfCells="2604">
<Points>
<DataArray  type="Float64"  NumberOfComponents="3"  format="ascii">0 0.41 0  0 0 0  2.2 0 0  2.2 0.41 0  0.2353553390593274 0.2353553390593274 0  0.25 0.2 0  0.2353553390593274 0.1646446609406726 0  0.2 0.15 0  0.1646446609406726 0.1646446609406726 0  0.15 0.2 0  0.1646446609406726 0.2353553390593274 0  0.2 0.25 0  0.6923879532511287 0.188268343236509 0  0.7 0.15 0  0.6923879532511287 0.1117316567634909 0  0.6707106781186547 0.07928932188134523 0  0.6382683432365089 0.05761204674887133 0  0.6 0.04999999999999999 0  0.5617316567634909 0.05761204674887134 0  0.5292893218813453 0.07928932188134524 0  0.5076120467488713 0.111731656763491 0  0.5 0.15 0  0.5076120467488713 0.188268343236509 0  0.5292893218813453 0.2207106781186547 0  0.561731656763491 0.2423879532511287 0  0.6 0.25 0  0.6382683432365089 0.2423879532511287 0  0.6707106781186547 0.2207106781186547 0  1.1 0 0  0 0.205 0  1.1 0.41 0  0.55 0 0  0.55 0.41 0  0.275 0 0  0.8250000000000001 0 0  0.275 0.41 0  0.8250000000000001 0.41 0  0.6875 0 0  0.61875 0 0  1.65 0.41 0  1.65 0 0  1.375 0 0  1.375 0.41 0  1.925 0 0  1.925 0.41 0  1.5125 0.205 0  1.7875 0.205 0  0.9625000000000001 0.205 0  1.2375 0.205 0  2.2 0.205 0  1.99375 0.2152743902439024 0  0.4125 0.41 0  2.0625 0 0  2.0625 0.41 0  2.2 0.3075 0  1.7875 0.41 0  1.375 0.1486128048780488 0  1.5125 0 0  1.7875 0 0  1.5125 0.41 0  0.9625000000000001 0.41 0  0.4125 0 0  0.1375 0 0  0.1375 0.41 0  0.6875 0.41 0  0.9625000000000001 0 0  1.2375 0 0  1.1 0.1486128048780488 0  1.2375 0.41 0  1.65 0.1486128048780487 0  0.823495464168302 0.2603780552348366 0  0.3738707794507017 0.2720196349488618 0  0.3662291281331582 0.1311456406657909 0  1.676715909090909 0.2793064024390244 0  1.126715909090909 0.2793064024390244 0  1.348284090909091 0.2793064024390244 0  0.8287581077665108 0.1302150898054257 0  1.894702181800738 0.1282910975492754 0  2.092797818199262 0.1282910975492754 0  1.85625 0.3075 0  0 0.3075 0  0 0.1025 0  2.099172119769978 0.25625 0  0.4752414543992246 0.3180372603390748 0  1.99375 0.08395950269330846 0  1.459960956013612 0.3075 0  1.569025960719943 0.2986889805672169 0  1.03125 0.3278689922742084 0  1.959375 0.3126371951219512 0  1.749222215368287 0.1025 0  1.275777784631713 0.1025 0  0.9228016959331474 0.3075 0  1.000777784631713 0.1025 0  2.2 0.1025 0  1.225938124459196 0.3075 0  1.550777784631713 0.1025 0  1.44375 0.07430640243902442 0  1.16875 0.07430640243902439 0  0.7562500000000001 0.3358727844323386 0  0.89375 0 0  1.899250267340833 0.2229966846119207 0  0.61875 0.41 0  1.766482954545455 0.2934032012195123 0  1.046078563095834 0.2389031808701145 0  1.421109702350723 0.2261157654379721 0  0.07567171807980319 0.25625 0  0.2511897295290552 0.3235829392832554 0  0.07655002503762308 0.1488653460959645 0  0.1377245246847496 0.3206030474919778 0  0.6694099692696568 0.3242771941727899 0  0.9168971191497528 0.1295727156104653 0  0.7562500000000001 0 0  2.118919042110979 0.3422084711244843 0  2.13125 0 0  0.06875000000000001 0 0  1.30625 0.41 0  1.597888256393107 0.2173787389261347 0  0.34375 0.41 0  0.2493272016354703 0.08091360081773515 0  0.5588896233436766 0.3264056208677571 0  1.829299675393195 0.07400700849299596 0  0.1334079128307869 0.08523463035786674 0  1.71875 0.41 0  0.06875000000000001 0.41 0  1.16875 0.41 0  2.038220665644273 0.332420740103091 0  0.8810647413215221 0.2027360103977071 0  0.34375 0 0  0.7453891198966415 0.2471459041008237 0  0.42112093004955 0.1988123139090554 0  0.8314023090855964 0.3351170841770613 0  0.89375 0.41 0  0.7906250000000001 0.06615386481594063 0  1.452769549894695 0.1548122580621249 0  1.369219062229598 0.07430640243902442 0  1.30625 0 0  1.07420695807087 0.07430640243902439 0  1.720943423819132 0.1714577452753128 0  1.157188124459196 0.205 0  1.304056576180868 0.1714577452753128 0  1.67579304192913 0.07430640243902437 0  1.209670467133757 0.136210026696477 0  0.4312800784902823 0.08036147352247747 0  0.8723959680194693 0.07066860609690805 0  1.025335513626278 0.1700681449722324 0  0.7945632284247136 0.1940204203251442 0  0.378125 0.3452261501101892 0  0.3307109909790086 0.2037165635083759 0  0.3009701032039409 0.2702970083403109 0  0.20625 0.41 0  1.58125 0 0  0.4812500000000001 0 0  0.9838963872396855 0.2722244191167347 0  0.06772484939107212 0.3260067317374387 0  0.20625 0 0  1.58125 0.41 0  1.631724228912893 0.3381867502687533 0  1.825608881788174 0.14499488549201 0  1.85625 0 0  1.44375 0 0  1.44375 0.41 0  1.85625 0.41 0  2.13125 0.41 0  0.7562500000000001 0.41 0  0.4812500000000001 0.41 0  1.16875 0 0  1.03125 0.41 0  1.03125 0 0  1.71875 0 0  1.99375 0 0  1.99375 0.41 0  0.9408708167433545 0.0651989315768642 0  1.340625 0.3489494290853124 0  1.134375 0.3489494290853123 0  1.700180620188976 0.3438659752031281 0  0.29668452290037 0.1318471691375986 0  0.3175441051360096 0.06496934809856265 0  0.06509151636162461 0.08140814015999148 0  2.135782184673599 0.07126652247502523 0  1.668441847249787 0.2129203728327609 0  1.295782514339747 0.2378437748815763 0  1.409375 0.3520314716057996 0  2.129248544730567 0.1906135162504124 0  2.060771381434487 0.1989445750470348 0  2.013252586573865 0.1496169464686054 0  1.942766402200229 0.1734448904596831 0  1.895522487186454 0.06076163953489683 0  2.069553871656643 0.06605731020975725 0  0.4670911801404742 0.2498408582391372 0  0.7622743084658112 0.1264100838268133 0  1.274680914880868 0.3520219391081363 0  0.3148669572599245 0.3331753056385887 0  1.614713220494657 0.09473434380863296 0  1.72990325744076 0.2380068107952482 0  1.356580098625191 0.2120393231351682 0  2.034370752044885 0.2668681600792073 0  1.51768709249349 0.3426260931494756 0  1.561883724969884 0.1650446847858835 0  1.197344062229598 0.2523725417393646 0  1.804085235518364 0.3468178408964637 0  1.817887819205233 0.2589243285818559 0  1.905897727272727 0.3485060975609756 0  0.7296439733931823 0.06337466644369745 0  0.4250935971865949 0.1394919578475796 0  0.3773030136511669 0.05130372097998036 0  1.192836486056382 0.3562350748565544 0  1.1029124365364 0.226143510831178 0  1.28257088594801 0.2944411014911587 0  0.1905185804731426 0.06029880676029167 0  1.474860187679412 0.2504218616229368 0  1.406767003493824 0.2829282258560709 0  0.5209826960981064 0.2830664557824064 0  0.5131119502780163 0.3617405848213254 0  0.1948220106098172 0.3081993407644811 0  1.845656689180403 0.1998310418452388 0  2.144958525570388 0.2909790873294231 0  2.2 0.15375 0  0.8833025251326762 0.2625402923007629 0  0.171875 0.3653875762360952 0  1.57794966442982 0.3540357145964566 0  0.446875 0.366068291212731 0  0.4272051715206439 0.2891929346190664 0  1.508991196088596 0.1421783375065625 0  1.50436820029908 0.06143401634903343 0  1.223857000523521 0.08235548624535324 0  0.6137904613287555 0.3066826366281556 0  1.153316824384777 0.1289850171317838 0  0.9751573703656133 0.327632618473408 0  2.148922302309752 0.1258841779285271 0  0.9281250000000001 0.3643758685795699 0  1.621993280276081 0.2841214267927899 0  1.550118654119087 0.2461998729100966 0  1.327182649291491 0.1216967252533594 0  0.9939955742738924 0.04663549843168518 0  1.753125 0.04556020050186112 0  1.271875 0.04556020050186116 0  0.9734326767716519 0.1506854560854393 0  0.103125 0.3675775577080512 0  1.94956388244759 0.1180512551534177 0  1.949997712993411 0.04965831614304109 0  0.717433898748555 0.295596016333797 0  1.771961817615021 0.1530278789497521 0  1.909246823951428 0.2812757146784527 0  0 0.35875 0  1.050632804931928 0.1226269704412814 0  0.05695108326502596 0.2024009637347154 0  1.948575539857022 0.2445328248721197 0  1.697271520964565 0.1233917627620729 0  1.065625 0.3689344961371042 0  1.085849084308977 0.3170853572226867 0  0.1015495998772944 0.04226029099983852 0  1.577403511714593 0.05463601888079143 0  1.751571320346033 0.3651102912045228 0  2.2 0.35875 0  0.7441773632462837 0.1786786606458751 0  0 0.05125 0  1.466879772203159 0.3611261772912453 0  0.6282230348858767 0.3577675483994025 0  1.990280163552011 0.3564754268533217 0  1.17471064520912 0.2990917256188288 0  0 0.25625 0  2.2 0.25625 0  2.2 0.05125 0  0 0.15375 0  1.853978576207987 0.35875 0  1.515638456102889 0.2882700110184686 0  2.150453692751374 0.2387066338105111 0  1.323782677156475 0.04897634338873398 0  1.409375 0.03715320121951221 0  1.406484531114799 0.1087852750766809 0  1.134375 0.03715320121951219 0  0.721875 0.3729363922161693 0  0.7941695928236929 0.3696489254637395 0  0.7934827162619036 0.3013409431456604 0  1.627401732573545 0.04552157221025036 0  0.9352049974617431 0.2507047965699472 0  0.8763260682738339 0.3611103317460093 0  2.045405893604797 0.1105340662939892 0  1.255408269734577 0.1577307500159216 0  2.028125 0.03707597992059326 0  1.003030137506755 0.3689344961371042 0  1.248258025468107 0.2565907092181813 0  1.203125 0.03661323374043041 0  0.4800125512335631 0.0549472816999725 0  2.072662025974815 0.2975086504196739 0  0.240625 0.3729825336867542 0  1.113252391110535 0.10238286244357 0  1.071052763974265 0.1885202618768825 0  0.8738809401657862 0.3106483608284829 0  0.6786819423003397 0.2677558482644021 0  1.887722846421017 0.1760882698830035 0  1.472640588990488 0.1118278026240017 0  0.5843750000000001 0.41 0  1.865937103925594 0.2604137786483804 0  1.463913572748262 0.2030442564990043 0  1.376426316059077 0.3186741374914345 0  0.1038643885363755 0.2162701735320032 0  0.1769473813227781 0.1070849728467114 0  0.458787839809176 0.171541653775316 0  0.240625 0 0  0.04179569703428024 0.2877217852556549 0  0.1258346557601885 0.2699740073054968 0  1.722140693354707 0.282908100935778 0  0.41206179117512 0.2448172567039922 0  0.3702471778075604 0.2265217604228704 0  0.3714881805374215 0.1786967818665642 0  1.77397096061971 0.2481483237422926 0  2.105123889160691 0.03743885948498647 0  1.001138337938679 0.229719337663998 0  1.051242910646791 0.2854826559431138 0  1.395420985247586 0.18
[...]
<PointData  Scalars="f_43"> 
<DataArray  type="Float64"  Name="f_43"  format="ascii">1.1071185279707940e-01  2.0658329587726887e-01  5.6467660361808625e-11  1.1383987900564037e-10  8.5243628267426624e-02  8.5413264810861325e-02  6.8520847463143686e-02  6.7260000543836490e-02  1.4112248958303911e-01  1.3983160354939561e-01  8.9569102284938223e-02  7.4867086354381010e-02  -2.8937766598421074e-03  7.0006406878093657e-03  7.3428571640295785e-03  2.3194878488203394e-03  4.4698649982798051e-02  1.5298440940903218e-02  5.6783903690441279e-03  9.6113955850779073e-02  1.4182575426134764e-01  1.3609648354804943e-01  8.5138230305130652e-02  3.3199215843738007e-02  -9.7373015898937921e-03  -3.5167184401549985e-02  -3.0218791816419680e-02  -1.2912664566947970e-02  2.1479682210647562e-02  1.2038645421674679e-01  1.9167633430059516e-02  6.5734882649001528e-02  4.9147284993415558e-02  1.0374306356255870e-01  1.7185960950295842e-02  9.7840474519621953e-02  1.1970295963468356e-02  1.2079462619364417e-02  1.9989707893822858e-02  1.0263506787922299e-02  1.0274124832441131e-02  1.5565887828280296e-02  1.5247906428997100e-02  5.1400577615484111e-03  5.1391526741879183e-03  1.2841941285146622e-02  7.7043056582053113e-03  2.3312810627205815e-02  1.7978946763910292e-02  1.0814513992601298e-10  3.8517606151996101e-03  8.5188079262618177e-02  2.5676683312089161e-03  2.5660597126275783e-03  1.2717725813816302e-10  7.6968506468496276e-03  1.5482106253584817e-02  1.2889828508843107e-02  7.7138740023260715e-03  1.2796996764898774e-02  1.8216202328132088e-02  1.0901749753345347e-01  1.1626974374534822e-01  1.1195139861995002e-01  1.3199310042334156e-02  2.3086731729764321e-02  1.8414023935486610e-02  2.0984524152048808e-02  1.7516295966220518e-02  1.0281368183992733e-02  1.1716670664340591e-02  9.9166097387620514e-02  1.0529595272770466e-01  9.7685916645979479e-03  1.9490984718770765e-02  1.5801745554452507e-02  1.9080815579302999e-02  5.7013337251023916e-03  2.0031132917731048e-03  6.4153817657260194e-03  1.1147722138582337e-01  1.3063273056339506e-01  1.8811192144204349e-03  7.4080247538964902e-02  3.8521395350978563e-03  1.3764738781640973e-02  1.1765043361875635e-02  1.9855903375096327e-02  4.4928173531520003e-03  8.4252812562221023e-03  1.7509258638699236e-02  1.9458251406928185e-02  2.2967871854262620e-02  1.3076849008760055e-10  1.7826881517769032e-02  1.2153915519655610e-02  1.4202676845218389e-02  1.9844926458146107e-02  9.6224551414515417e-03  2.1266565749639796e-02  5.6160242478421225e-03  2.5793973037828644e-02  8.0900415414742050e-03  2.1264393416485942e-02  1.4530519711854645e-02  1.1564929535035909e-01  9.4292650892034396e-02  1.3066304413227348e-01  1.0802870178314515e-01  4.1797705535195281e-03  2.3171897856671782e-02  1.2845476202396761e-02  1.5151696839794755e-03  1.2711528508843998e-03  1.3024303923044492e-01  1.6429823609884216e-02  1.1243514224312461e-02  9.1538035337590473e-02  9.7478603394705793e-02  3.4050063427041331e-02  6.9282372875880648e-03  1.2299810556956381e-01  8.9854379914094916e-03  1.1114636143623614e-01  1.8468125390440595e-02  3.0231060847184998e-03  2.1146799483916429e-02  1.0503106270826784e-01  -3.8502199025286874e-03  1.0269186561833772e-01  1.3749531034179049e-02  1.5320301109661103e-02  1.6445177817507799e-02  1.3993299664781883e-02  1.5666294283515993e-02  1.6963685074687335e-02  2.1856539944908455e-02  8.9501987098494235e-03  1.9491520395764194e-02  1.6805591428496903e-02  9.8032335754106650e-03  1.8769080244927634e-02  1.1716195030572678e-01  2.0593942870923750e-02  2.2405635709369622e-02  6.5062789556285649e-03  9.0532493665070310e-02  9.2680387827932934e-02  9.3147406237439959e-02  1.0715246549720797e-01  1.1580692499245865e-02  1.0846226754380799e-01  2.1511798246487763e-02  1.1075033896001581e-01  1.0780124178938782e-01  1.1524069219619265e-02  1.0601494901221420e-02  6.9941688500793128e-03  6.4187176519110798e-03  1.4217145598934864e-02  1.4041843182701248e-02  6.4127293891724068e-03  1.2741001082597120e-03  1.0495431422853944e-02  7.1810611759531878e-02  1.9939330539342201e-02  1.9286094120012004e-02  2.2766472151250737e-02  8.9904595171493764e-03  3.8449896280062998e-03  3.8509003295591582e-03  2.2715131338827767e-02  1.5865846618718555e-02  1.8958484922896087e-02  9.3297474197621168e-03  8.9001314233306997e-02  1.0419683103125034e-01  1.3057329357534159e-01  1.2001775774452830e-03  9.9284098710776779e-03  1.6815595950669213e-02  1.4654684909644866e-02  1.3196880750214589e-03  2.5984169164446967e-03  3.4860102195115083e-03  4.8017321369376864e-03  5.6843389121485344e-03  2.4360721271235466e-03  8.3596057044510605e-02  1.2030488588728969e-02  1.6959651222154468e-02  9.4596374534180475e-02  1.0947728951519268e-02  8.7788189112630709e-03  1.5745002840083976e-02  3.0933893115107983e-03  1.2701777446673638e-02  1.1930553660451565e-02  1.8511549281583842e-02  7.3910627913095417e-03  7.1329581049908745e-03  5.4919265982311654e-03  1.3104132838831883e-02  1.1937806789741136e-01  1.0803553549090911e-01  1.8197055805454866e-02  2.0359820765521588e-02  1.6920234306144585e-02  1.0869798581632105e-01  1.3521058346625809e-02  1.4743768277914154e-02  4.6287140627986667e-02  6.0490788674663093e-02  9.5786862804005682e-02  6.6164090090792852e-03  1.0264752179630467e-03  -1.4901848361514140e-10  2.0315416333739525e-02  1.0871939456430960e-01  1.1592738308735620e-02  7.9332227468325259e-02  9.1502127186623705e-02  1.2931804671499982e-02  1.3043765588060814e-02  1.8632885888967138e-02  3.3564123720093898e-04  1.9967207187386440e-02  1.9609791061863936e-02  9.5462406715266066e-04  1.7261440205946721e-02  1.0785993365637009e-02  1.2127633895097786e-02  1.6446454026093051e-02  2.2987562701381411e-02  8.3554227704411722e-03  1.7664234264651801e-02  2.3359329186812744e-02  1.1070711283364215e-01  4.6757825448577161e-03  4.6658448642126343e-03  -9.9504365933780780e-04  7.9978830396876463e-03  5.4272519794246977e-03  1.1067151664082717e-01  2.2127772851305433e-02  1.2297370539586407e-01  4.6935241329871891e-03  9.3944464021765307e-03  1.9417534787559084e-02  1.9667496269746530e-02  1.2497845025511040e-01  1.1656340723188987e-02  8.3700888248179877e-03  1.1383987900564037e-10  2.9131351392497284e-03  1.3941091101257896e-01  1.3622386863553460e-02  1.9493051101145270e-02  3.9168064060216695e-03  1.8648849831020123e-02  1.1470574385768936e-01  1.0814513992601298e-10  5.6467660361808625e-11  1.2592524547966605e-01  6.4577452468114679e-03  1.2752749237983654e-02  9.2489172005638318e-04  1.6591308876538896e-02  1.4885621420064889e-02  1.4910329854085407e-02  2.0680644330421123e-02  1.1901171378453488e-02  1.2046929580288489e-02  9.9280552309383603e-03  1.0711813174048710e-02  2.2586794403703113e-02  1.4903249968350752e-02  2.8880100736178101e-03  1.7784807278994813e-02  3.2138608037899992e-03  1.9185915601233415e-02  1.7611024182763963e-02  1.9150195627635216e-02  1.1089477001992891e-01  2.3792609591208966e-03  1.0154867845168651e-01  2.0943351615581224e-02  2.1313981208587830e-02  1.7224434760055481e-02  -1.3444174606314875e-02  5.8304371031296020e-03  1.3634532298717248e-02  3.6527523570338546e-02  6.2364334980660636e-03  1.3751394656797764e-02  1.5259549080195479e-02  1.2598735916938597e-01  1.0945036331888365e-01  1.1473483017551923e-01  1.0488110349288372e-01  1.1257185106563525e-01  1.0829550364877985e-01  8.9201858725292838e-03  9.8302990150566080e-02  9.8809782289849241e-02  9.9233453403501454e-02  7.9553945608039755e-03  1.7738332093590692e-03  2.2275106497186576e-02  2.0462434466879349e-02  1.5045234429386248e-02  3.2138573592431947e-03  8.6200435235826628e-02  1.1163000748783798e-02  1.2948137747801036e-01  1.3464318209671103e-01  1.6956109415239617e-02  2.1855415910351599e-02  9.5437560184573361e-02  7.2414585234139052e-03  3.9123711601070669e-03  9.2571743769251619e-02  8.5352607298382691e-02  8.9881967753790912e-02  6.9702993625718902e-04  1.9304592648079514e-03  2.3276739439794998e-03  2.3654021598924230e-02  2.3223157131584193e-02  1.0903552199581485e-02  1.4662138593422998e-02  7.5965800834280808e-03  4.0567519026906973e-02  1.3190676025954526e-01  1.1022312291641287e-01  3.6215749603246711e-03  1.5215601678257713e-02  1.7807622494457553e-03  9.4315197445652713e-02  9.6580818801383292e-02  1.8837254610994291e-02  1.3545271269734841e-02  1.0622369357639721e-02  1.2169823532870005e-02  2.2535817257161674e-02  9.6590648966581247e-03  9.1920481936578410e-03  7.5939296185365793e-04  7.5658560372718884e-04  1.3284537465344037e-01  1.3559871619055136e-01  1.1070181743894676e-01  1.1619063541095329e-01  1.9351894753865222e-02  1.8020538925566897e-02  1.0551735489755774e-02  7.5255388337440790e-03  6.2017057509712288e-03  9.5876096804916516e-02  8.2019624936359170e-02  1.0400259849081446e-01  1.2243866286679301e-02  4.7323605575995305e-03  1.4761303692860561e-02  1.4010989519327957e-01  1.9409015295974056e-02  7.0639170902017118e-03  8.6602858029855411e-03  1.0005581821518490e-02  1.1227028347810508e-01  2.6763411714491483e-03  1.0113671240508547e-01  9.2129030702173348e-02  1.2075657486384188e-02  1.7576488082355190e-02  9.6674254137431567e-02  1.9768267550171643e-03  1.3740815503092047e-02  2.3293634516754386e-02  1.0577340504782400e-01  1.1384679552324316e-02  1.4178387887997603e-02  1.1031473170092024e-01  1.0394277022693171e-01  8.3753252635738865e-02  2.2469483994332570e-02  2.1486884099217833e-02  1.9561805416154418e-02  2.0095870300665987e-02  7.3114876808440591e-04  1.3013535539784404e-01  1.6228370193610130e-02  8.4442725883598774e-02  1.0131353720977862e-01  2.6117448083590013e-03  -3.2179926454925711e-03  3.9351075225541356e-03  5.4165218650084869e-02  5.7733987592089447e-03  9.9060532657523112e-02  6.3997204376272454e-03  5.7765075273398126e-03  5.0680777764834095e-03  9.0779988440230358e-02  1.2905908098142432e-02  2.0419216289490106e-02  9.1090987558363184e-03  2.2505642911841053e-02  2.1542722707455237e-02  9.9943176996153422e-03  1.0229194031570079e-02  8.7149041300437657e-02  1.1776721595855831e-01  3.0438881976658631e-03  1.4729776055761232e-02  9.4285395605996691e-02  7.7601355622530493e-03  1.2652437541073325e-01  7.8800541976660581e-03  2.0410520629773415e-03  1.2087042435336891e-02  2.4515315296642626e-02  1.3287193072819257e-02  -1.1460024410215465e-02  3.1246169934452590e-03  1.4078953760510202e-02  1.2822520469122732e-02  1.1092236039289949e-01  1.4238611801174871e-02  1.3181022562913562e-02  1.8433375092423192e-02  1.2913358228119808e-02  1.2562475136049253e-02  2.2176268037948966e-02  1.4553873042775429e-02  1.4998671536501031e-02  1.7349841230941149e-02  8.4537856163004049e-03  1.7236254686752786e-02  8.7360318443895045e-03  1.7103963845532116e-02  1.5630914900517687e-02  1.5855312467178941e-02  9.6066075018961024e-03  1.6167088955464041e-02  4.2232290720045041e-03  8.7989980076239427e-02  1.8108654643797507e-02  1.9240416991184315e-02  1.1148328409990601e-02  9.9366037202627874e-03  2.1394115261902814e-02  2.2323685170242462e-02  1.0681785814747677e-02  1.1298082525020525e-02  1.2480235903192870e-02  8.5591442632484818e-02  8.8698138607099852e-02  2.0458561445040463e-02  7.0664027566001378e-03  9.2851526703621290e-02  2.5576384321795917e-03  3.2274771473766260e-03  1.6814698364914338e-02  1.7048988876010480e-03  1.1686819911584316e-02  -7.6789553693608218e-04  1.5479902456614436e-03  6.8548527999519359e-04  7.9906555632731253e-03  1.2301311769437707e-02  2.1862162692632834e-02  2.2712519378026822e-02  2.3007991605113270e-02  1.9826400184891835e-02  1.3470044280960539e-01  1.1152412324247932e-01  1.4900248348621881e-02  1.9299362645122897e-02  1.0649843832840253e-01  8.5266522197150005e-03  6.5605810621396454e-04  1.4926441592959842e-03  4.5368313074144575e-03  1.7068251079854356e-03  1.8565953038121225e-02  6.3806937676555240e-03  7.4304589737400287e-03  1.4161897764761384e-02  1.7060695559406248e-02  -8.2327588833582821e-03  3.5412682627091727e-02  2.3086084274045633e-02  2.1246307006556903e-02  2.1231671140563423e-02  1.8581888810970910e-02  1.8861261066106760e-02  1.6393344446033888e-02  1.5850797164256015e-02  1.5272809902047720e-02  1.9053938808976274e-02  9.7113308744461557e-02  1.0584054590253840e-01  1.4363835542432592e-02  1.4603131513937411e-03  1.8018878539287689e-02  6.4589211092359418e-03  2.0641411631425285e-02  1.8386591997397544e-02  2.2598996419367752e-02  1.4641449419612968e-02  9.6140840873475686e-03  3.8611588982254367e-03  3.1918798246807953e-03  2.1820117622380855e-02  4.4757134162992608e-03  1.6974696594281056e-02  1.9036888205311953e-02  1.0604227008365022e-01  1.1057697054101270e-01  1.9917753709523648e-02  1.6255302021145009e-02  6.4959258839884370e-04  1.9085263087237141e-03  1.1014904770443344e-02  2.0717345333883207e-02  1.4896681250620164e-02  1.3413336409670259e-02  8.3418708526517751e-03  1.9325491865355635e-02  8.3524104402746199e-03  1.7013853342180668e-02  1.4649149485601120e-02  6.4272654942215386e-04  1.1018714156056750e-01  7.9884040068101625e-02  1.0692821818959050e-01  1.0240063746263779e-01  1.2019880118734609e-01  1.1178664050522660e-01  1.1071029442216879e-01  1.1074920756808941e-01  1.3504668379563952e-02  1.0954616902379609e-02  6.1533864920779897e-02  1.7726523533854691e-02  1.8204079499612540e-02  1.9170615615117910e-02  1.9021078177631968e-02  1.0938861805414210e-02  4.4903381848167929e-03  1.7674296229076715e-02  2.3108289904031874e-02  3.2117569711076839e-03  4.4843459431649904e-03  2.2641884419688296e-02  9.0039832828123501e-03  9.5961690669089800e-02  7.1802078362447522e-02  5.4812192017206281e-02  2.1019033691696085e-02  3.5353007823950826e-03  1.2727355641567126e-01  1.4274501374010398e-02  1.9462973972018224e-02  1.1745061468612043e-02  3.0578827149753934e-02  9.7564283900836296e-02  1.6108154954373177e-02  1.6448409739919640e-02  8.1281686916271273e-02  1.8593062468707285e-02  1.2331980153460398e-02  1.3140506427218149e-02  5.4569933049130872e-03  1.4095864979367070e-02  1.4342028672573680e-02  9.3101530211774815e-03  5.7411920963123262e-03  1.8981034406571895e-02  9.2161896675190692e-03  6.9338760000988830e-03  9.9296722477926775e-03  1.6555300244031328e-02  5.1153648413071375e-03  1.3109678971269840e-02  1.1258669208873610e-02  2.5886699935194738e-03  2.1064362637571790e-03  1.0753092133551689e-01  7.0988156122544166e-02  2.2900829698332896e-02  1.5790639735404143e-02  1.5658834216329260e-02  1.7448397101264987e-02  5.1458937700892098e-03  5.3333822152587832e-03  2.1270943122234536e-03  2.1476608451993381e-02  2.9928323547573831e-03  7.3819237230767880e-03  1.0490079854506291e-01  6.8333996546144672e-03  9.3780666763748025e-03  6.6709478636871088e-03  4.4611125339625735e-03  1.0982026282140815e-01  5.9105892126179319e-04  4.7600805505359344e-03  1.1791007777153910e-02  8.9231878909406565e-02  -2.3891526141998454e-02  1.1579916346252111e-02  1.0426902256649415e-02  5.4538068269699164e-03  1.2980302051786846e-01  1.1845465973607618e-02  1.2772687504393690e-02  1.1262180297310635e-02  2.2269385501636693e-02  1.0881462425593304e-01  1.1513238984539824e-01  1.2465415883845003e-02  1.6168687093389606e-02  1.2551516759943160e-01  1.1026383423613431e-01  6.0968185607456647e-03  1.7363365054376415e-02  4.8341715314099325e-03  1.8258744518300077e-02  1.9358674882248308e-02  1.1907394070607639e-02  7.2620513437875837e-03  1.8220680352596361e-02  8.4566045035448078e-03  1.1497427110126825e-01  1.0213905032212028e-01  2.0273035955257458e-02  1.7501986897782172e-02  1.8013125991492181e-02  1.9010143422777157e-02  1.0038520874558674e-02  1.3609191448612544e-02  2.7590362761485746e-02  7.5891609187064410e-03  6.7878308572904798e-03  1.9908417855513754e-03  1.3173277165714150e-02  4.2132787673737279e-03  1.5991341891658298e-01  1.1070325741901839e-01  1.2342402526245584e-02  5.6283345161510416e-03  9.4412652644088584e-03  1.0540390261003575e-01  1.6710705757134087e-02  1.2134747153473686e-02  1.1132848365500128e-01  8.8588935037745620e-02  4.1029238437656421e-03  1.1224283873515482e-01  9.5044618991383625e-02  1.5775774353727363e-02  7.3307152876363789e-03  3.0286240327513904e-02  5.2451594698214199e-02  1.7955173707296473e-02  6.7349317844243419e-03  2.3518332406739059e-02  1.8707821835894482e-03  1.2270837917122282e-01  6.9626329944032974e-03  1.8100451066531294e-02  1.0668749446677889e-02  5.9998637717300057e-03  1.0814513992601298e-10  9.5046994886152925e-02  1.9810149406122444e-02  2.0145909313594838e-02  2.2857412265167590e-02  1.8670565987608311e-02  1.0297575971372529e-02  1.1374426283265750e-01  1.2303664006904860e-01  6.6258954815345166e-04  2.5357948283864303e-03  8.9559317748186290e-02  1.0178734179361532e-01  1.2482616567538585e-01  5.6770508561045834e-03  1.5071471930929363e-02  1.3968903779994660e-02  1.3547552498017507e-02  1.3179146036597773e-02  1.4297918519861031e-02  6.1566425836769821e-03  2.0059399483652769e-02  1.1588446261681881e-01  1.5271899759441968e-02  1.4541900491274178e-02  1.6903777360846944e-02  4.7920137997289107e-02  9.3778378363113882e-02  8.5435332805635561e-02  6.0538127847667928e-03  1.1460799965111722e-01  1.4660876075312327e-02  7.5551220859061893e-03  -6.1490947070340545e-03  2.0857343101614852e-02  1.9926080031367616e-02  1.9950599187038467e-02  1.3076849008760055e-10  1.2759020660493289e-01  9.3243744506314785e-02  1.7465131656319143e-02  1.7064725831018691e-02  2.0705433499137480e-02  1.6851428370086657e-02  8.7851433753113224e-03  1.0498021403513660e-01  9.9906644101264722e-02  1.9747533676229438e-02  1.9297167436911643e-02  6.5967138212536983e-02  2.2806342072870661e-02  3.5901162448656425e-03  1.3466972751924010e-02  1.0458572734586748e-02  3.1095922549252093e-02  1.3131628900301697e-02  9.3455795813829571e-03  8.0216934216925384e-03  1.1823732242118949e-03  1.3025187355260384e-03  5.4192927087409759e-04  8.2857172522734390e-02  6.3636006909930667e-02  6.1203684646246627e-03  3.9719515263409609e-03  -5.7715899660300820e-03  1.5823710722698125e-02  1.7111516581054767e-02  8.6756242273387744e-03  7.9592638026333255e-03  1.1877745421612983e-01  1.1364048880087236e-02  1.9364516357496933e-02  2.0448357249640586e-02  1.1082627223377679e-01  1.6133177846337114e-02  8.7598711800169135e-02  7.6635565021725589e-03  1.0733611137576095e-01  1.7868940386114432e-02  1.7352468907208422e-02  8.9556394186834816e-03  9.4283948113776897e-02  6.4785275117360541e-03  2.3021889536358312e-02  1.0814513992601298e-10  1.9756847198694881e-02  2.0590167860037388e-02  1.1633652434051501e-02  1.1055422274605703e-02  9.6873851777990294e-02  9.2261356918348691e-02  5.2215768540139606e-03  5.2522974650143182e-03  4.8388605131442393e-03  2.0606843197263432e-03  1.2528069372094717e-02  1.1854595896391599e-02  1.1660155384345752e-02  7.7367062099485767e-02  1.5758334422519036e-02  1.3466942102796354e-02  1.9231717844752427e-02  1.0876657209438442e-02  1.9555458705956208e-02  1.9612583273855417e-02  1.9956404631603301e-02  7.1688682995779780e-03  7.8532772283501622e-03  5.1765069884279298e-03  4.9348771541572033e-03  1.0221740861541379e-01  1.1275525013948541e-01  8.8206704020825817e-03  1.1943658734902581e-01  1.0862925252974764e-01  8.2384902005626561e-03  2.3474254656945928e-02  2.3111005968864711e-02  2.2957627187295111e-02  1.8222098948510831e-02  2.2478877912199498e-02  1.4304738464217811e-02  8.2120894031853936e-02  6.0241015202800044e-03  1.7220424403984035e-02  2.2062238737270468e-02  8.3418971393002250e-02  1.8743911409901711e-03  9.5155302202945893e-03  1.8653354828223830e-02  1.1857531816692089e-01  1.0889285925255614e-01  1.1287939345862499e-02  2.1495530694343186e-02  1.5938279190422615e-02  1.1178166987440580e-02  1.5366057192517810e-02  1.1043708504708322e-01  8.4033974455898428e-03  9.7757778082121785e-02  1.2426634987183733e-02  6.9071712011504305e-02  1.2704752037865641e-03  7.5188619818548014e-03  9.5007916650892144e-03  1.1092841063451360e-01  1.6298120470017531e-02  1.3727340198118995e-02  1.3598897014339358e-02  1.3156240284546030e-02  1.0953266875905186e-01  1.1682289719914434e-02  2.2924284434865098e-02  4.2