<?xml version="1.0"?>
<VTKFile type="UnstructuredGrid"  version="0.1"  >
<UnstructuredGrid>
<Piece  NumberOfPoints="1404" NumberOfCells="2604">
<Points>
<DataArray  type="Float64"  NumberOfComponents="3"  format="ascii">0 0.41 0  0 0 0  2.2 0 0  2.2 0.41 0  0.2353553390593274 0.2353553390593274 0  0.25 0.2 0  0.2353553390593274 0.1646446609406726 0  0.2 0.15 0  0.1646446609406726 0.1646446609406726 0  0.15 0.2 0  0.1646446609406726 0.2353553390593274 0  0.2 0.25 0  0.6923879532511287 0.188268343236509 0  0.7 0.15 0  0.6923879532511287 0.1117316567634909 0  0.6707106781186547 0.07928932188134523 0  0.6382683432365089 0.05761204674887133 0  0.6 0.04999999999999999 0  0.5617316567634909 0.05761204674887134 0  0.5292893218813453 0.07928932188134524 0  0.5076120467488713 0.111731656763491 0  0.5 0.15 0  0.5076120467488713 0.188268343236509 0  0.5292893218813453 0.2207106781186547 0  0.561731656763491 0.2423879532511287 0  0.6 0.25 0  0.6382683432365089 0.2423879532511287 0  0.6707106781186547 0.2207106781186547 0  1.1 0 0  0 0.205 0  1.1 0.41 0  0.55 0 0  0.55 0.41 0  0.275 0 0  0.8250000000000001 0 0  0.275 0.41 0  0.8250000000000001 0.41 0  0.6875 0 0  0.61875 0 0  1.65 0.41 0  1.65 0 0  1.375 0 0  1.375 0.41 0  1.925 0 0  1.925 0.41 0  1.5125 0.205 0  1.7875 0.205 0  0.9625000000000001 0.205 0  1.2375 0.205 0  2.2 0.205 0  1.99375 0.2152743902439024 0  0.4125 0.41 0  2.0625 0 0  2.0625 0.41 0  2.2 0.3075 0  1.7875 0.41 0  1.375 0.1486128048780488 0  1.5125 0 0  1.7875 0 0  1.5125 0.41 0  0.9625000000000001 0.41 0  0.4125 0 0  0.1375 0 0  0.1375 0.41 0  0.6875 0.41 0  0.9625000000000001 0 0  1.2375 0 0  1.1 0.1486128048780488 0  1.2375 0.41 0  1.65 0.1486128048780487 0  0.823495464168302 0.2603780552348366 0  0.3738707794507017 0.2720196349488618 0  0.3662291281331582 0.1311456406657909 0  1.676715909090909 0.2793064024390244 0  1.126715909090909 0.2793064024390244 0  1.348284090909091 0.2793064024390244 0  0.8287581077665108 0.1302150898054257 0  1.894702181800738 0.1282910975492754 0  2.092797818199262 0.1282910975492754 0  1.85625 0.3075 0  0 0.3075 0  0 0.1025 0  2.099172119769978 0.25625 0  0.4752414543992246 0.3180372603390748 0  1.99375 0.08395950269330846 0  1.459960956013612 0.3075 0  1.569025960719943 0.2986889805672169 0  1.03125 0.3278689922742084 0  1.959375 0.3126371951219512 0  1.749222215368287 0.1025 0  1.275777784631713 0.1025 0  0.9228016959331474 0.3075 0  1.000777784631713 0.1025 0  2.2 0.1025 0  1.225938124459196 0.3075 0  1.550777784631713 0.1025 0  1.44375 0.07430640243902442 0  1.16875 0.07430640243902439 0  0.7562500000000001 0.3358727844323386 0  0.89375 0 0  1.899250267340833 0.2229966846119207 0  0.61875 0.41 0  1.766482954545455 0.2934032012195123 0  1.046078563095834 0.2389031808701145 0  1.421109702350723 0.2261157654379721 0  0.07567171807980319 0.25625 0  0.2511897295290552 0.3235829392832554 0  0.07655002503762308 0.1488653460959645 0  0.1377245246847496 0.3206030474919778 0  0.6694099692696568 0.3242771941727899 0  0.9168971191497528 0.1295727156104653 0  0.7562500000000001 0 0  2.118919042110979 0.3422084711244843 0  2.13125 0 0  0.06875000000000001 0 0  1.30625 0.41 0  1.597888256393107 0.2173787389261347 0  0.34375 0.41 0  0.2493272016354703 0.08091360081773515 0  0.5588896233436766 0.3264056208677571 0  1.829299675393195 0.07400700849299596 0  0.1334079128307869 0.08523463035786674 0  1.71875 0.41 0  0.06875000000000001 0.41 0  1.16875 0.41 0  2.038220665644273 0.332420740103091 0  0.8810647413215221 0.2027360103977071 0  0.34375 0 0  0.7453891198966415 0.2471459041008237 0  0.42112093004955 0.1988123139090554 0  0.8314023090855964 0.3351170841770613 0  0.89375 0.41 0  0.7906250000000001 0.06615386481594063 0  1.452769549894695 0.1548122580621249 0  1.369219062229598 0.07430640243902442 0  1.30625 0 0  1.07420695807087 0.07430640243902439 0  1.720943423819132 0.1714577452753128 0  1.157188124459196 0.205 0  1.304056576180868 0.1714577452753128 0  1.67579304192913 0.07430640243902437 0  1.209670467133757 0.136210026696477 0  0.4312800784902823 0.08036147352247747 0  0.8723959680194693 0.07066860609690805 0  1.025335513626278 0.1700681449722324 0  0.7945632284247136 0.1940204203251442 0  0.378125 0.3452261501101892 0  0.3307109909790086 0.2037165635083759 0  0.3009701032039409 0.2702970083403109 0  0.20625 0.41 0  1.58125 0 0  0.4812500000000001 0 0  0.9838963872396855 0.2722244191167347 0  0.06772484939107212 0.3260067317374387 0  0.20625 0 0  1.58125 0.41 0  1.631724228912893 0.3381867502687533 0  1.825608881788174 0.14499488549201 0  1.85625 0 0  1.44375 0 0  1.44375 0.41 0  1.85625 0.41 0  2.13125 0.41 0  0.7562500000000001 0.41 0  0.4812500000000001 0.41 0  1.16875 0 0  1.03125 0.41 0  1.03125 0 0  1.71875 0 0  1.99375 0 0  1.99375 0.41 0  0.9408708167433545 0.0651989315768642 0  1.340625 0.3489494290853124 0  1.134375 0.3489494290853123 0  1.700180620188976 0.3438659752031281 0  0.29668452290037 0.1318471691375986 0  0.3175441051360096 0.06496934809856265 0  0.06509151636162461 0.08140814015999148 0  2.135782184673599 0.07126652247502523 0  1.668441847249787 0.2129203728327609 0  1.295782514339747 0.2378437748815763 0  1.409375 0.3520314716057996 0  2.129248544730567 0.1906135162504124 0  2.060771381434487 0.1989445750470348 0  2.013252586573865 0.1496169464686054 0  1.942766402200229 0.1734448904596831 0  1.895522487186454 0.06076163953489683 0  2.069553871656643 0.06605731020975725 0  0.4670911801404742 0.2498408582391372 0  0.7622743084658112 0.1264100838268133 0  1.274680914880868 0.3520219391081363 0  0.3148669572599245 0.3331753056385887 0  1.614713220494657 0.09473434380863296 0  1.72990325744076 0.2380068107952482 0  1.356580098625191 0.2120393231351682 0  2.034370752044885 0.2668681600792073 0  1.51768709249349 0.3426260931494756 0  1.561883724969884 0.1650446847858835 0  1.197344062229598 0.2523725417393646 0  1.804085235518364 0.3468178408964637 0  1.817887819205233 0.2589243285818559 0  1.905897727272727 0.3485060975609756 0  0.7296439733931823 0.06337466644369745 0  0.4250935971865949 0.1394919578475796 0  0.3773030136511669 0.05130372097998036 0  1.192836486056382 0.3562350748565544 0  1.1029124365364 0.226143510831178 0  1.28257088594801 0.2944411014911587 0  0.1905185804731426 0.06029880676029167 0  1.474860187679412 0.2504218616229368 0  1.406767003493824 0.2829282258560709 0  0.5209826960981064 0.2830664557824064 0  0.5131119502780163 0.3617405848213254 0  0.1948220106098172 0.3081993407644811 0  1.845656689180403 0.1998310418452388 0  2.144958525570388 0.2909790873294231 0  2.2 0.15375 0  0.8833025251326762 0.2625402923007629 0  0.171875 0.3653875762360952 0  1.57794966442982 0.3540357145964566 0  0.446875 0.366068291212731 0  0.4272051715206439 0.2891929346190664 0  1.508991196088596 0.1421783375065625 0  1.50436820029908 0.06143401634903343 0  1.223857000523521 0.08235548624535324 0  0.6137904613287555 0.3066826366281556 0  1.153316824384777 0.1289850171317838 0  0.9751573703656133 0.327632618473408 0  2.148922302309752 0.1258841779285271 0  0.9281250000000001 0.3643758685795699 0  1.621993280276081 0.2841214267927899 0  1.550118654119087 0.2461998729100966 0  1.327182649291491 0.1216967252533594 0  0.9939955742738924 0.04663549843168518 0  1.753125 0.04556020050186112 0  1.271875 0.04556020050186116 0  0.9734326767716519 0.1506854560854393 0  0.103125 0.3675775577080512 0  1.94956388244759 0.1180512551534177 0  1.949997712993411 0.04965831614304109 0  0.717433898748555 0.295596016333797 0  1.771961817615021 0.1530278789497521 0  1.909246823951428 0.2812757146784527 0  0 0.35875 0  1.050632804931928 0.1226269704412814 0  0.05695108326502596 0.2024009637347154 0  1.948575539857022 0.2445328248721197 0  1.697271520964565 0.1233917627620729 0  1.065625 0.3689344961371042 0  1.085849084308977 0.3170853572226867 0  0.1015495998772944 0.04226029099983852 0  1.577403511714593 0.05463601888079143 0  1.751571320346033 0.3651102912045228 0  2.2 0.35875 0  0.7441773632462837 0.1786786606458751 0  0 0.05125 0  1.466879772203159 0.3611261772912453 0  0.6282230348858767 0.3577675483994025 0  1.990280163552011 0.3564754268533217 0  1.17471064520912 0.2990917256188288 0  0 0.25625 0  2.2 0.25625 0  2.2 0.05125 0  0 0.15375 0  1.853978576207987 0.35875 0  1.515638456102889 0.2882700110184686 0  2.150453692751374 0.2387066338105111 0  1.323782677156475 0.04897634338873398 0  1.409375 0.03715320121951221 0  1.406484531114799 0.1087852750766809 0  1.134375 0.03715320121951219 0  0.721875 0.3729363922161693 0  0.7941695928236929 0.3696489254637395 0  0.7934827162619036 0.3013409431456604 0  1.627401732573545 0.04552157221025036 0  0.9352049974617431 0.2507047965699472 0  0.8763260682738339 0.3611103317460093 0  2.045405893604797 0.1105340662939892 0  1.255408269734577 0.1577307500159216 0  2.028125 0.03707597992059326 0  1.003030137506755 0.3689344961371042 0  1.248258025468107 0.2565907092181813 0  1.203125 0.03661323374043041 0  0.4800125512335631 0.0549472816999725 0  2.072662025974815 0.2975086504196739 0  0.240625 0.3729825336867542 0  1.113252391110535 0.10238286244357 0  1.071052763974265 0.1885202618768825 0  0.8738809401657862 0.3106483608284829 0  0.6786819423003397 0.2677558482644021 0  1.887722846421017 0.1760882698830035 0  1.472640588990488 0.1118278026240017 0  0.5843750000000001 0.41 0  1.865937103925594 0.2604137786483804 0  1.463913572748262 0.2030442564990043 0  1.376426316059077 0.3186741374914345 0  0.1038643885363755 0.2162701735320032 0  0.1769473813227781 0.1070849728467114 0  0.458787839809176 0.171541653775316 0  0.240625 0 0  0.04179569703428024 0.2877217852556549 0  0.1258346557601885 0.2699740073054968 0  1.722140693354707 0.282908100935778 0  0.41206179117512 0.2448172567039922 0  0.3702471778075604 0.2265217604228704 0  0.3714881805374215 0.1786967818665642 0  1.77397096061971 0.2481483237422926 0  2.105123889160691 0.03743885948498647 0  1.001138337938679 0.229719337663998 0  1.051242910646791 0.2854826559431138 0  1.395420985247586 0.18
[...]
<PointData  Scalars="f_43"> 
<DataArray  type="Float64"  Name="f_43"  format="ascii">1.0786483410536091e-01  2.0447686127157785e-01  1.1348374538334314e-10  4.0689130649659881e-10  8.0092570777794608e-02  8.3641203674257744e-02  7.0303200314332737e-02  6.6629671504357252e-02  1.3708455900857128e-01  1.3832448945064840e-01  8.9042709216753529e-02  7.0779290475109002e-02  -5.3914847442763708e-03  -5.7585279141387485e-03  -9.9877333092318697e-03  -1.6326957074152541e-02  3.2965178104325400e-02  -5.3231564503959331e-03  -1.8750001130221249e-02  8.6821141983155312e-02  1.5770467592599277e-01  1.5295801255871028e-01  7.4968859031105811e-02  1.3511382053279361e-02  -2.2090408213132823e-02  -3.5081946909810820e-02  -2.4784209991472229e-02  -1.1187562906767617e-02  1.1583663987495319e-02  1.1805245895974499e-01  2.4467332698909390e-03  5.7662831797460019e-02  4.7947477460127404e-02  1.0167658724351303e-01  -3.2077370048017224e-03  9.2573388917265492e-02  2.1263358888106861e-03  -4.5482341647167350e-03  3.1456662407448564e-03  7.2245692300072616e-03  7.2352324206749388e-03  1.2076802890432769e-02  9.5687965002145547e-03  3.6056850998670161e-03  3.6236514556668639e-03  9.0222502302506578e-03  5.4211906653946042e-03  -7.5083668145103921e-03  1.1757716859437306e-02  2.0743678829564918e-10  2.7111805982630755e-03  8.0487732306965390e-02  1.8026756348607630e-03  1.8094311817932027e-03  3.5464791932134509e-10  5.4350961959910571e-03  1.1374464189327986e-02  9.2739523510457101e-03  5.4078071728849786e-03  8.8190981892469298e-03  2.3951497113006517e-03  1.0656728950566656e-01  1.1410605113908685e-01  1.0678277707950308e-01  9.0997867039959383e-03  -1.2488400129433393e-03  1.5577497690333302e-02  8.0449090700051972e-03  7.2344516259297579e-03  7.2374497155567145e-03  -3.8612182569675089e-04  9.1236451464766180e-02  9.9838070868777287e-02  6.8787564668353332e-03  4.2495730635285006e-03  9.9747898529450076e-03  -2.6516069954426597e-03  4.0044310659388483e-03  1.4079372232092284e-03  4.5245998365579278e-03  1.0864019266885819e-01  1.2861214785755112e-01  1.3239697014659233e-03  7.2119823589380724e-02  2.7059390971645456e-03  9.3536129238297357e-03  8.2258433095749855e-03  2.7777373067343074e-03  3.1670202790430005e-03  5.9143103841008647e-03  1.4301483734125672e-02  1.1445300477900410e-03  -2.3927900037885009e-03  2.7111248630617124e-10  7.1061109448903809e-03  8.6363548042422238e-03  1.0479385151304641e-02  1.5144491805913320e-02  2.2767934415462020e-03  -3.1640181633089235e-03  3.9535019623413922e-03  2.4391329650212634e-02  5.7062936402898223e-03  9.6416209300418851e-04  1.0019274592987662e-02  1.1320639003083192e-01  9.0042309176560642e-02  1.2861411918469073e-01  1.0499865478190586e-01  2.1993295725728701e-03  -5.6577045616066409e-03  -4.4463012557790045e-03  1.0664025949273955e-03  8.9791742350487931e-04  1.2809578019988513e-01  9.0068483435745139e-03  7.9045491630620919e-03  8.6688325737381333e-02  9.5549902808574672e-02  3.4603118861652446e-02  4.8612659896459251e-03  1.2102172560267332e-01  6.3388326242838243e-03  1.0826211828013943e-01  4.4628724223543898e-03  2.1305237295468414e-03  -3.8100829035286675e-03  1.0320024495102273e-01  -2.4901170456356541e-03  9.6685857690962038e-02  2.3756450458600619e-03  2.2853417380911080e-03  -2.1976006826343129e-03  1.0027580711397602e-02  1.2135891001571447e-02  1.3924120378382853e-02  7.5113130698266526e-03  6.2938450972116512e-03  1.0498095525696661e-02  1.2215110406693097e-02  6.8899899404026022e-03  1.4691968933312101e-02  1.1685348002033387e-01  -2.9171678665447340e-03  -3.6661982506657302e-03  -7.6854678714634338e-04  8.5181083564889321e-02  8.9092222518032060e-02  8.7145973910023156e-02  1.0060058562498027e-01  8.2084659850281457e-03  1.0619951588536332e-01  -9.6775069799790044e-04  1.0819014510649691e-01  1.0564925874617755e-01  8.0638443732744414e-03  7.4517322467910745e-03  4.9139248365186747e-03  4.5041202383986406e-03  1.0530301212528490e-02  9.3909761786590829e-03  4.5276398261343198e-03  9.0192237689154281e-04  3.2778294405019543e-03  6.8553955996806859e-02  1.5463165969419721e-02  2.1839917017122861e-03  4.5443459466707574e-03  6.3121778395084536e-03  2.7040210254758914e-03  2.7154496073417433e-03  -3.0472962101163671e-03  9.4603845847382410e-03  2.9656075384451672e-03  6.5772676894428677e-03  8.7782064851038372e-02  1.0187394320993161e-01  1.2860141640277298e-01  8.4239733096646565e-04  6.9866130368828518e-03  1.0561932010533107e-02  9.5601825982680830e-03  9.2789715761353768e-04  1.8275291643408248e-03  2.4504603797060893e-03  3.3760881786443972e-03  3.9899835924817866e-03  1.7113006649369137e-03  8.0929827185561756e-02  -4.3313064005469602e-03  8.3279010716339648e-03  8.8941941939587071e-02  7.7241633333157457e-03  6.1817778503228992e-03  1.0785412594416816e-02  2.1789339169977500e-03  8.7721852803429919e-03  8.4236012562619138e-03  8.3679685991931811e-03  5.2160866705351213e-03  5.0252055119514201e-03  3.8740471768547507e-03  -3.9328374600351920e-03  1.1851090399660576e-01  1.0651494377200307e-01  5.1911406091699787e-03  5.9727301760917071e-03  9.1340617950672522e-03  1.0656229612024064e-01  9.3570894683001372e-03  9.8027432950577847e-03  4.5616565239163451e-02  5.8608010695099196e-02  9.2373774078988308e-02  4.6546922123875279e-03  7.2212417045165224e-04  -2.2401809308827405e-10  -2.3747901344992398e-03  1.0312390734565144e-01  8.1016479796638882e-03  7.5387521968829571e-02  8.6559499683967020e-02  9.2091321506039096e-03  9.4029432733219974e-03  1.5547571339930559e-02  -1.2239588973267354e-05  1.3652022764929378e-02  2.8380097821774771e-03  6.7074621091117097e-04  3.2903657072330464e-03  7.5776148039553475e-03  8.4900074879756312e-03  1.2724745467992004e-02  1.6191488567843053e-04  5.8605803295022352e-03  1.4807335074434321e-02  -7.2507131609366752e-03  1.0738845834114658e-01  3.2849908263658575e-03  3.2776130014178571e-03  -2.8467242391979871e-03  5.6206006857106678e-03  3.8248885188589075e-03  1.0769359883212844e-01  2.0014367071222736e-03  1.2072450372039720e-01  3.3049379606440396e-03  6.6019291782492577e-03  2.4330254246529965e-03  2.4436883330409553e-03  1.2283909104494957e-01  8.2678383679166256e-03  5.9072029786589458e-03  4.0689130649659881e-10  -3.5514503172940095e-03  1.3736990414049405e-01  9.2205343534297428e-03  1.7920268093930290e-02  2.7612807074459938e-03  5.0455575760677057e-03  1.1208676018419644e-01  2.0743678829564918e-10  1.1348374538334314e-10  1.2380507483759581e-01  4.5578910072981904e-03  8.8419027036061512e-03  6.5106627274016699e-04  1.3419401348949271e-02  1.1274849056328364e-02  1.1099663983176328e-02  1.3687681938468468e-02  5.6970931664913644e-03  3.1938495191488744e-03  5.6468706150642378e-04  7.5546000430780844e-03  -4.4336526514023224e-03  3.1819922426101531e-03  2.0286030282991811e-03  1.3465297763394262e-02  2.2563474942446527e-03  2.8957746113880719e-03  9.4463733282678496e-03  1.5739262322217781e-02  1.0909074669040159e-01  1.6760483281501378e-03  9.5679196429124341e-02  1.1128743597882329e-02  3.0798913695661012e-03  1.0553229326267937e-03  -1.0769107997765955e-02  4.0998347089726333e-03  9.8587680560110608e-03  3.5685960335984417e-02  4.3936915333690424e-03  9.6536778585178309e-03  9.7214218131258783e-03  1.2366151548009838e-01  1.0750591871170180e-01  1.1715835741025571e-01  1.0272964551786415e-01  1.0988928129855147e-01  1.0610817973588374e-01  6.2867887504548586e-03  9.1690221017408743e-02  9.1906211402819862e-02  9.3169360998921494e-02  5.6041921362406273e-03  1.2442040540890395e-03  -3.9842389718892264e-03  2.2797967667481313e-03  1.0617386894594931e-02  2.2641123355064759e-03  8.2516954129676634e-02  7.8731965298956368e-03  1.2747270746981118e-01  1.3237857913908585e-01  -2.0021955408406791e-03  -4.0558656258728011e-03  9.2669692922960734e-02  5.1072878599997037e-03  2.7552389854906272e-03  8.9695078191173672e-02  8.4853053724699534e-02  8.5859302460244410e-02  4.9189754372581094e-04  1.3579437509823832e-03  1.6390585761069882e-03  -7.4440307947266507e-03  -5.0808544092061673e-03  7.6539430214587322e-03  1.0916674308087715e-02  5.3343304846775385e-03  3.9732916536056075e-02  1.4066560707931242e-01  1.0786826682483278e-01  2.5520718914269886e-03  1.0193197792479212e-02  -1.4163016792312065e-03  8.9391785801305287e-02  9.1257780183547119e-02  1.2893772111547947e-02  9.8663959646525679e-03  7.4762276268197552e-03  8.4593382459059695e-03  4.5083574018113847e-03  6.7770759442029455e-03  6.4543620908938375e-03  5.3238357932707144e-04  5.3437085813360687e-04  1.3073511648537064e-01  1.3352466850266861e-01  1.0788902696966203e-01  1.1398339694320261e-01  -3.1940842237548270e-03  -2.4147779489381506e-03  7.4206129419625080e-03  5.2777618775665695e-03  4.3536161846124567e-03  8.8994275088861263e-02  8.2113314773594626e-02  1.0174875112792528e-01  8.7261092231549764e-03  3.3383686402790242e-03  -1.0055130509553029e-03  1.3774287226296134e-01  -2.4711269157599264e-03  4.9834137535988100e-03  6.1078493605185632e-03  7.0449642981329766e-03  1.0990411943355395e-01  1.8817085159303368e-03  9.7533978891294684e-02  8.7056081426503507e-02  8.4906327277761966e-03  6.9624465045377906e-03  8.9768432122950978e-02  1.3906157944832531e-03  1.0060837558502154e-02  -6.2655212061023440e-03  1.0345479452668882e-01  7.9859056991734602e-03  -2.2349273838556810e-03  1.0799295775643478e-01  1.0204685770598930e-01  7.7957643217862110e-02  -2.6267611927957295e-03  -2.8564089498992105e-03  7.2886982746624600e-03  1.1370859451124031e-02  5.1354822207632961e-04  1.2817666129847577e-01  9.5031144377104530e-03  8.0324897183662383e-02  9.6216772341277873e-02  -2.6264162729239943e-04  -4.2620072344722914e-03  2.7645502619114853e-03  5.4357188800650331e-02  4.0748154844404885e-03  9.6603227987219681e-02  4.4901803276369548e-03  4.0539106755081320e-03  3.5588470613145068e-03  8.7538879175543441e-02  9.2486617127720827e-03  3.5167663151057364e-03  6.3953181310299973e-03  2.3845303249149753e-03  1.0441260493965831e-02  7.0284688505248549e-03  7.1986304589933053e-03  8.6199784534219753e-02  1.1531360240146787e-01  2.1461953009495314e-03  1.0691671785714818e-02  8.7865723259689943e-02  2.6869129178272349e-03  1.2442212230189559e-01  5.5283014980742791e-03  -1.3554526491857358e-03  -4.4700187147011525e-03  2.4362482386500808e-02  9.4117487335011775e-03  -1.0683737339300283e-02  2.1951650704554165e-03  9.5858043583863083e-03  8.9316957085926584e-03  1.0806811160014186e-01  3.6983909029443817e-04  3.0087509996280376e-03  3.0578528592048598e-03  -2.3835129010480144e-03  9.0028089875071327e-03  8.2273546774595616e-03  -2.4216473807022812e-03  -3.5144065498653489e-03  -2.7155774195900336e-03  5.9481149492581174e-03  1.1678100444193339e-02  6.1375094950551204e-03  1.3269674526339538e-02  1.1872878799941994e-02  1.2462411949806526e-02  6.7551268648141961e-03  1.1917441809148532e-02  2.9691355535114644e-03  8.3415385403854694e-02  1.4630729908843329e-02  1.5351174338191460e-02  7.8193868423123598e-03  6.9958807030518523e-03  -3.3785324188885472e-03  -3.9868293517208928e-03  7.5043555638756370e-03  7.9585655346199862e-03  8.6338221445616346e-03  8.0963438797275744e-02  8.3860364483772779e-02  2.0552178125521244e-03  4.9561404923210584e-03  8.7883749177309151e-02  1.8014029697406371e-03  2.2718312275618680e-03  1.3562935009353540e-02  1.2006110119252608e-03  4.0028770528505548e-03  -1.5730004493891823e-03  1.0893055563982788e-03  4.8247126918085122e-04  5.6378619803579989e-03  8.7723728682127331e-03  -1.4052519924549504e-03  -3.2330482928636592e-03  -7.0619375930676123e-03  -2.7705212399758805e-03  1.3268879063453984e-01  1.0935978715136406e-01  1.1226648253141397e-02  2.4126420604136732e-03  1.0407896241555102e-01  -6.6303866888748402e-03  4.6145499251516270e-04  1.0495935214626080e-03  3.1925875538132207e-03  1.2021932309942028e-03  1.0869725842149959e-02  4.4814973954724968e-03  5.2242280273162448e-03  -3.9263120619235908e-03  2.8853466269899799e-03  -7.1403104809307965e-03  2.0998252554989810e-02  -2.5145490921123699e-03  -8.9915516868065636e-04  3.5337850368908730e-04  4.0021738081212239e-03  3.2250350314763543e-03  8.9897936921078860e-03  9.4205197370997168e-03  9.5529971370949991e-03  3.3653713713401165e-03  9.4758086207072212e-02  1.0430416922081422e-01  1.0164117893055012e-02  1.0261882116955703e-03  5.8897438234942652e-03  4.5397412705676403e-03  7.7618412840093753e-03  1.5473911851904448e-02  -4.8442456414021689e-03  9.6462731649860547e-03  6.7811670286899222e-03  2.7150714045326351e-03  2.2454438785788990e-03  1.4337295970937932e-03  3.1538930517306667e-03  8.2859177073018545e-03  2.8166918978601622e-03  9.9797973021311756e-02  1.0596149310078494e-01  1.5176448786182108e-02  1.2969797110379312e-02  4.5249853697735344e-04  1.3460317849374652e-03  5.2803452347545696e-03  1.4175509596782571e-02  1.1257591335825641e-02  9.1344140056293394e-03  5.8886801925238470e-03  2.1430924406810612e-03  5.8586079018420776e-03  2.3913354047531980e-03  9.5465252574194887e-03  4.5429651910921132e-04  1.0745204321800053e-01  7.5691770177997192e-02  1.0491720750579353e-01  9.6417047392843624e-02  1.1802551604010275e-01  1.0806517984644261e-01  1.0436304247410165e-01  1.0805729319944120e-01  2.1600370783767253e-03  2.3995216650582766e-03  5.9415953987198497e-02  1.5232515339384578e-02  1.5047891839929692e-03  1.5941188826992230e-02  2.2985862750379928e-03  7.7163896976627667e-03  3.1547832444143819e-03  1.4850459075835211e-02  1.1773416412306911e-03  2.2549598519611691e-03  3.1661281422748046e-03  -2.0104898088567792e-03  6.3519133026441344e-03  9.1208851894010165e-02  7.1371787340701598e-02  4.8903734408557067e-02  1.2093551604018237e-02  2.4838641914493227e-03  1.2532396902586113e-01  1.0409115474755115e-02  1.3502115419104174e-02  2.3269446468764674e-03  2.9280473334325163e-02  8.9929279331426457e-02  1.0427722799908808e-02  9.9020101418388802e-03  8.1962905159528240e-02  4.1568429589831793e-03  8.5731568858500064e-03  9.0332288974518549e-03  3.8294044762579808e-03  9.4337233826285866e-03  9.4545372093418605e-03  6.5571524868190227e-03  4.0497547501446296e-03  6.3431002266732843e-03  6.4855019820996380e-03  4.8686306836479157e-03  6.9888397332470006e-03  1.1276592900456127e-02  3.6063819941471445e-03  8.9726953500889849e-03  7.9646962987060203e-03  1.8167806376849841e-03  1.4799860153805100e-03  1.0131449695744958e-01  6.7883439231805023e-02  -5.4469169752209314e-03  -2.5433486217187906e-03  1.1168140767838263e-02  7.5021508956020222e-03  3.6206275568408915e-03  3.7480404151818076e-03  1.4991167671913701e-03  6.9853569684307478e-03  2.1095272916870607e-03  5.2090986383018061e-03  1.0300141941696302e-01  4.8207383682627091e-03  6.6106744570914467e-03  4.6971796121275389e-03  3.1320973677058531e-03  1.0707420845200777e-01  4.1622166966177101e-04  -5.2190486400539686e-04  8.3424765745462506e-03  8.4380245301699144e-02  -2.2129629611634411e-02  8.1973555069444828e-03  7.3413594176259490e-03  3.8482262963449375e-03  1.2763593075653212e-01  8.2564287073656102e-03  -3.5894532900647689e-03  7.8865794850071155e-03  -4.3873229273976065e-03  1.0687709268997994e-01  1.1314403883123320e-01  8.7995794325118684e-03  1.2671282878851385e-02  1.3107847553386737e-01  1.0799465695128706e-01  4.3017312960476990e-03  -7.0071374456761942e-04  3.4103370027404401e-03  1.3182536891640397e-02  2.5732271037500879e-03  8.4693265353969031e-03  5.1129506039135552e-03  5.5948216491730944e-03  5.9591246318832026e-03  1.1297206078459078e-01  1.0009485071326688e-01  1.3826746726712124e-02  1.0798851113904301e-02  7.9047837827103864e-03  9.2764072721175806e-03  7.0645112854711995e-03  9.9075140085816554e-03  1.0775767715035982e-02  5.3497511750726428e-03  4.7849762133641534e-03  1.4008538901625249e-03  9.5306243617111312e-03  2.9706073497285644e-03  1.5783406172038189e-01  1.0777019390508233e-01  8.7540594708825116e-03  3.9513701949438372e-03  -7.8126138199073759e-03  1.0115790416918531e-01  8.9477275727428886e-03  8.4406427437710152e-03  1.0969825822320362e-01  8.3497124100234965e-02  2.8824919973042570e-03  1.0976857855975147e-01  8.8619718259528940e-02  9.4054192407920251e-03  -1.0865581038701886e-02  1.5119309500166029e-02  5.0979653632231635e-02  1.5047141134519850e-02  4.7543938990802616e-03  -6.9956553721935016e-03  1.3134879588987296e-03  1.2046774084503674e-01  4.8843577102249021e-03  9.8330774644290134e-03  7.5158553249655780e-03  4.2299167057949123e-03  2.0743678829564918e-10  8.9956177910461108e-02  -6.3464323412576245e-04  -2.8421584732758274e-03  2.6454842458696905e-03  2.9623527395910457e-03  7.2448967921319484e-03  1.0993033084639917e-01  1.2480367693131311e-01  4.6471829502637874e-04  1.7864281780507216e-03  8.5575454938894041e-02  9.9216191801645079e-02  1.2209732713301391e-01  3.9988134922934156e-03  1.0379252539207764e-02  9.6786276918591554e-03  9.2977010037082683e-03  9.2007161649571637e-03  1.0633616107587540e-02  4.3428029672174110e-03  2.8636066913550265e-03  1.1352963000193692e-01  9.9663560345679865e-03  9.8613877027544997e-03  -1.3949801613440164e-03  4.7186940464033864e-02  9.0170482899320809e-02  8.1925458021414141e-02  4.2588949010043693e-03  1.1199170878975719e-01  1.4853932491331327e-02  6.7870579729549050e-03  -4.7495189431988405e-03  3.3693525811986230e-03  5.2394208237713080e-03  8.5154491861091971e-03  2.7111248630617124e-10  1.3444128313707976e-01  8.7539937416613173e-02  8.4913999949859514e-03  9.7439885119956250e-03  -3.5206222004301973e-03  8.3978180264321790e-03  6.1667829826221095e-03  1.0278944336100736e-01  9.3082000885178137e-02  1.7096223776580526e-02  2.6054970419664755e-03  6.4353035113941248e-02  1.5067736542560828e-03  2.5313612274691292e-03  9.6240539837774211e-03  7.3561935406080223e-03  3.0914034014469387e-02  6.1787649470507302e-03  5.3265368287828798e-03  5.6618747336776836e-03  8.3271117275945244e-04  9.1688453577080996e-04  3.8191089129230717e-04  8.0190653348886795e-02  5.2606990701425521e-02  4.3089929520742703e-03  2.8014564968949530e-03  -5.7554605915921628e-03  2.9720525815994186e-03  1.4120505885931233e-02  6.0876741041037217e-03  5.5821576819530426e-03  1.1638543738062408e-01  8.0293851953263124e-03  1.4594330434810673e-02  1.1397875018507312e-02  1.0785199621796923e-01  1.1330759059287630e-02  8.3437359030157615e-02  -4.7399427995942654e-03  1.0337890272328148e-01  6.3131092583131234e-03  1.4362398013606980e-02  -1.1931878880880324e-04  8.9064338072497432e-02  -2.2943279924091662e-03  -2.5458141034865223e-04  2.0743678829564918e-10  2.8879348494810458e-03  1.2177383049190675e-03  8.1340453496053632e-03  7.7539554649090070e-03  9.0056464274900327e-02  8.7776123031334058e-02  3.6680899070366817e-03  1.8031016638166651e-04  3.4002726273920057e-03  1.4496486323727464e-03  8.7748938146114050e-03  8.2938034105407218e-03  8.1836478060428684e-03  7.4106892424698048e-02  9.6539366511741477e-03  -3.0454291082527133e-03  1.5655662054856485e-02  7.6613512431444476e-03  2.4118253611518257e-03  3.0373692621600405e-03  2.5593676532806101e-03  5.0434427963060953e-03  5.5423384283852248e-03  3.6312118379632492e-03  3.4666648477438824e-03  1.0053152891368497e-01  1.1002146154805996e-01  6.2222015100992355e-03  1.1719360638023189e-01  1.0599082557827802e-01  5.7869494941550810e-03  -8.0484602140705030e-03  -5.1013088228538412e-03  -1.7473669601398179e-03  5.1252106819929793e-03  -4.4026039148204214e-03  9.5999018969891731e-03  7.7758984981314352e-02  4.2335660433833371e-03  8.3574425039897281e-03  7.4956147390424846e-03  8.0957177438260960e-02  -7.4456279606038259e-04  6.6976511780377883e-03  1.5215737025281754e-02  1.1905761609181939e-01  1.0764987631224167e-01  7.9153355044030444e-03  -2.8121474516496197e-03  1.2000598910067517e-02  7.9002836630164934e-03  1.1829481032773792e-02  1.0771155754415088e-01  5.9090567606936940e-03  9.2570506418083842e-02  8.6635369430867210e-03  6.9910292646224378e-02  8.9355686417814993e-04  5.2826476928681696e-03  6.6975669553159681e-03  1.0770390144903887e-01  9.2517926750141141e-03  9.2554589250614643e-03  9.2403359155771667e-03  9.00707547921