<?xml version="1.0"?>
<VTKFile type="UnstructuredGrid"  version="0.1"  >
<UnstructuredGrid>
<Piece  NumberOfPoints="1404" NumberOfCells="2604">
<Points>
<DataArray  type="Float64"  NumberOfComponents="3"  format="ascii">0 0.41 0  0 0 0  2.2 0 0  2.2 0.41 0  0.2353553390593274 0.2353553390593274 0  0.25 0.2 0  0.2353553390593274 0.1646446609406726 0  0.2 0.15 0  0.1646446609406726 0.1646446609406726 0  0.15 0.2 0  0.1646446609406726 0.2353553390593274 0  0.2 0.25 0  0.6923879532511287 0.188268343236509 0  0.7 0.15 0  0.6923879532511287 0.1117316567634909 0  0.6707106781186547 0.07928932188134523 0  0.6382683432365089 0.05761204674887133 0  0.6 0.04999999999999999 0  0.5617316567634909 0.05761204674887134 0  0.5292893218813453 0.07928932188134524 0  0.5076120467488713 0.111731656763491 0  0.5 0.15 0  0.5076120467488713 0.188268343236509 0  0.5292893218813453 0.2207106781186547 0  0.561731656763491 0.2423879532511287 0  0.6 0.25 0  0.6382683432365089 0.2423879532511287 0  0.6707106781186547 0.2207106781186547 0  1.1 0 0  0 0.205 0  1.1 0.41 0  0.55 0 0  0.55 0.41 0  0.275 0 0  0.8250000000000001 0 0  0.275 0.41 0  0.8250000000000001 0.41 0  0.6875 0 0  0.61875 0 0  1.65 0.41 0  1.65 0 0  1.375 0 0  1.375 0.41 0  1.925 0 0  1.925 0.41 0  1.5125 0.205 0  1.7875 0.205 0  0.9625000000000001 0.205 0  1.2375 0.205 0  2.2 0.205 0  1.99375 0.2152743902439024 0  0.4125 0.41 0  2.0625 0 0  2.0625 0.41 0  2.2 0.3075 0  1.7875 0.41 0  1.375 0.1486128048780488 0  1.5125 0 0  1.7875 0 0  1.5125 0.41 0  0.9625000000000001 0.41 0  0.4125 0 0  0.1375 0 0  0.1375 0.41 0  0.6875 0.41 0  0.9625000000000001 0 0  1.2375 0 0  1.1 0.1486128048780488 0  1.2375 0.41 0  1.65 0.1486128048780487 0  0.823495464168302 0.2603780552348366 0  0.3738707794507017 0.2720196349488618 0  0.3662291281331582 0.1311456406657909 0  1.676715909090909 0.2793064024390244 0  1.126715909090909 0.2793064024390244 0  1.348284090909091 0.2793064024390244 0  0.8287581077665108 0.1302150898054257 0  1.894702181800738 0.1282910975492754 0  2.092797818199262 0.1282910975492754 0  1.85625 0.3075 0  0 0.3075 0  0 0.1025 0  2.099172119769978 0.25625 0  0.4752414543992246 0.3180372603390748 0  1.99375 0.08395950269330846 0  1.459960956013612 0.3075 0  1.569025960719943 0.2986889805672169 0  1.03125 0.3278689922742084 0  1.959375 0.3126371951219512 0  1.749222215368287 0.1025 0  1.275777784631713 0.1025 0  0.9228016959331474 0.3075 0  1.000777784631713 0.1025 0  2.2 0.1025 0  1.225938124459196 0.3075 0  1.550777784631713 0.1025 0  1.44375 0.07430640243902442 0  1.16875 0.07430640243902439 0  0.7562500000000001 0.3358727844323386 0  0.89375 0 0  1.899250267340833 0.2229966846119207 0  0.61875 0.41 0  1.766482954545455 0.2934032012195123 0  1.046078563095834 0.2389031808701145 0  1.421109702350723 0.2261157654379721 0  0.07567171807980319 0.25625 0  0.2511897295290552 0.3235829392832554 0  0.07655002503762308 0.1488653460959645 0  0.1377245246847496 0.3206030474919778 0  0.6694099692696568 0.3242771941727899 0  0.9168971191497528 0.1295727156104653 0  0.7562500000000001 0 0  2.118919042110979 0.3422084711244843 0  2.13125 0 0  0.06875000000000001 0 0  1.30625 0.41 0  1.597888256393107 0.2173787389261347 0  0.34375 0.41 0  0.2493272016354703 0.08091360081773515 0  0.5588896233436766 0.3264056208677571 0  1.829299675393195 0.07400700849299596 0  0.1334079128307869 0.08523463035786674 0  1.71875 0.41 0  0.06875000000000001 0.41 0  1.16875 0.41 0  2.038220665644273 0.332420740103091 0  0.8810647413215221 0.2027360103977071 0  0.34375 0 0  0.7453891198966415 0.2471459041008237 0  0.42112093004955 0.1988123139090554 0  0.8314023090855964 0.3351170841770613 0  0.89375 0.41 0  0.7906250000000001 0.06615386481594063 0  1.452769549894695 0.1548122580621249 0  1.369219062229598 0.07430640243902442 0  1.30625 0 0  1.07420695807087 0.07430640243902439 0  1.720943423819132 0.1714577452753128 0  1.157188124459196 0.205 0  1.304056576180868 0.1714577452753128 0  1.67579304192913 0.07430640243902437 0  1.209670467133757 0.136210026696477 0  0.4312800784902823 0.08036147352247747 0  0.8723959680194693 0.07066860609690805 0  1.025335513626278 0.1700681449722324 0  0.7945632284247136 0.1940204203251442 0  0.378125 0.3452261501101892 0  0.3307109909790086 0.2037165635083759 0  0.3009701032039409 0.2702970083403109 0  0.20625 0.41 0  1.58125 0 0  0.4812500000000001 0 0  0.9838963872396855 0.2722244191167347 0  0.06772484939107212 0.3260067317374387 0  0.20625 0 0  1.58125 0.41 0  1.631724228912893 0.3381867502687533 0  1.825608881788174 0.14499488549201 0  1.85625 0 0  1.44375 0 0  1.44375 0.41 0  1.85625 0.41 0  2.13125 0.41 0  0.7562500000000001 0.41 0  0.4812500000000001 0.41 0  1.16875 0 0  1.03125 0.41 0  1.03125 0 0  1.71875 0 0  1.99375 0 0  1.99375 0.41 0  0.9408708167433545 0.0651989315768642 0  1.340625 0.3489494290853124 0  1.134375 0.3489494290853123 0  1.700180620188976 0.3438659752031281 0  0.29668452290037 0.1318471691375986 0  0.3175441051360096 0.06496934809856265 0  0.06509151636162461 0.08140814015999148 0  2.135782184673599 0.07126652247502523 0  1.668441847249787 0.2129203728327609 0  1.295782514339747 0.2378437748815763 0  1.409375 0.3520314716057996 0  2.129248544730567 0.1906135162504124 0  2.060771381434487 0.1989445750470348 0  2.013252586573865 0.1496169464686054 0  1.942766402200229 0.1734448904596831 0  1.895522487186454 0.06076163953489683 0  2.069553871656643 0.06605731020975725 0  0.4670911801404742 0.2498408582391372 0  0.7622743084658112 0.1264100838268133 0  1.274680914880868 0.3520219391081363 0  0.3148669572599245 0.3331753056385887 0  1.614713220494657 0.09473434380863296 0  1.72990325744076 0.2380068107952482 0  1.356580098625191 0.2120393231351682 0  2.034370752044885 0.2668681600792073 0  1.51768709249349 0.3426260931494756 0  1.561883724969884 0.1650446847858835 0  1.197344062229598 0.2523725417393646 0  1.804085235518364 0.3468178408964637 0  1.817887819205233 0.2589243285818559 0  1.905897727272727 0.3485060975609756 0  0.7296439733931823 0.06337466644369745 0  0.4250935971865949 0.1394919578475796 0  0.3773030136511669 0.05130372097998036 0  1.192836486056382 0.3562350748565544 0  1.1029124365364 0.226143510831178 0  1.28257088594801 0.2944411014911587 0  0.1905185804731426 0.06029880676029167 0  1.474860187679412 0.2504218616229368 0  1.406767003493824 0.2829282258560709 0  0.5209826960981064 0.2830664557824064 0  0.5131119502780163 0.3617405848213254 0  0.1948220106098172 0.3081993407644811 0  1.845656689180403 0.1998310418452388 0  2.144958525570388 0.2909790873294231 0  2.2 0.15375 0  0.8833025251326762 0.2625402923007629 0  0.171875 0.3653875762360952 0  1.57794966442982 0.3540357145964566 0  0.446875 0.366068291212731 0  0.4272051715206439 0.2891929346190664 0  1.508991196088596 0.1421783375065625 0  1.50436820029908 0.06143401634903343 0  1.223857000523521 0.08235548624535324 0  0.6137904613287555 0.3066826366281556 0  1.153316824384777 0.1289850171317838 0  0.9751573703656133 0.327632618473408 0  2.148922302309752 0.1258841779285271 0  0.9281250000000001 0.3643758685795699 0  1.621993280276081 0.2841214267927899 0  1.550118654119087 0.2461998729100966 0  1.327182649291491 0.1216967252533594 0  0.9939955742738924 0.04663549843168518 0  1.753125 0.04556020050186112 0  1.271875 0.04556020050186116 0  0.9734326767716519 0.1506854560854393 0  0.103125 0.3675775577080512 0  1.94956388244759 0.1180512551534177 0  1.949997712993411 0.04965831614304109 0  0.717433898748555 0.295596016333797 0  1.771961817615021 0.1530278789497521 0  1.909246823951428 0.2812757146784527 0  0 0.35875 0  1.050632804931928 0.1226269704412814 0  0.05695108326502596 0.2024009637347154 0  1.948575539857022 0.2445328248721197 0  1.697271520964565 0.1233917627620729 0  1.065625 0.3689344961371042 0  1.085849084308977 0.3170853572226867 0  0.1015495998772944 0.04226029099983852 0  1.577403511714593 0.05463601888079143 0  1.751571320346033 0.3651102912045228 0  2.2 0.35875 0  0.7441773632462837 0.1786786606458751 0  0 0.05125 0  1.466879772203159 0.3611261772912453 0  0.6282230348858767 0.3577675483994025 0  1.990280163552011 0.3564754268533217 0  1.17471064520912 0.2990917256188288 0  0 0.25625 0  2.2 0.25625 0  2.2 0.05125 0  0 0.15375 0  1.853978576207987 0.35875 0  1.515638456102889 0.2882700110184686 0  2.150453692751374 0.2387066338105111 0  1.323782677156475 0.04897634338873398 0  1.409375 0.03715320121951221 0  1.406484531114799 0.1087852750766809 0  1.134375 0.03715320121951219 0  0.721875 0.3729363922161693 0  0.7941695928236929 0.3696489254637395 0  0.7934827162619036 0.3013409431456604 0  1.627401732573545 0.04552157221025036 0  0.9352049974617431 0.2507047965699472 0  0.8763260682738339 0.3611103317460093 0  2.045405893604797 0.1105340662939892 0  1.255408269734577 0.1577307500159216 0  2.028125 0.03707597992059326 0  1.003030137506755 0.3689344961371042 0  1.248258025468107 0.2565907092181813 0  1.203125 0.03661323374043041 0  0.4800125512335631 0.0549472816999725 0  2.072662025974815 0.2975086504196739 0  0.240625 0.3729825336867542 0  1.113252391110535 0.10238286244357 0  1.071052763974265 0.1885202618768825 0  0.8738809401657862 0.3106483608284829 0  0.6786819423003397 0.2677558482644021 0  1.887722846421017 0.1760882698830035 0  1.472640588990488 0.1118278026240017 0  0.5843750000000001 0.41 0  1.865937103925594 0.2604137786483804 0  1.463913572748262 0.2030442564990043 0  1.376426316059077 0.3186741374914345 0  0.1038643885363755 0.2162701735320032 0  0.1769473813227781 0.1070849728467114 0  0.458787839809176 0.171541653775316 0  0.240625 0 0  0.04179569703428024 0.2877217852556549 0  0.1258346557601885 0.2699740073054968 0  1.722140693354707 0.282908100935778 0  0.41206179117512 0.2448172567039922 0  0.3702471778075604 0.2265217604228704 0  0.3714881805374215 0.1786967818665642 0  1.77397096061971 0.2481483237422926 0  2.105123889160691 0.03743885948498647 0  1.001138337938679 0.229719337663998 0  1.051242910646791 0.2854826559431138 0  1.395420985247586 0.18
[...]
<PointData  Scalars="f_43"> 
<DataArray  type="Float64"  Name="f_43"  format="ascii">1.4665042541697787e-01  2.3345898731367670e-01  -2.4574790392063640e-11  -1.5298443859522600e-10  1.0768319057409341e-01  1.1772219099869223e-01  9.6689615982075997e-02  9.8707617215592153e-02  1.7191689414727984e-01  1.6976157315027851e-01  1.1760211312738651e-01  9.1918908995179197e-02  1.8913769156835118e-02  2.7874621197591369e-02  2.1249935993316222e-02  -1.7690100238708375e-03  4.5986989421919339e-02  -1.9008981894903399e-02  -3.1510649146656050e-02  9.4905531292328857e-02  1.4357277865672521e-01  1.4876208749114680e-01  1.2328280214685723e-01  7.7114640936454551e-02  2.7963796155295432e-02  -7.8607181260205942e-03  -1.6155545326992555e-02  1.5492948531244566e-03  2.6118319534893315e-02  1.4247799859771720e-01  2.5884040925247119e-02  5.2698065027662548e-02  6.8145423972761562e-02  1.3292081557379123e-01  2.8814848741051328e-02  1.2212984891389755e-01  3.1488846661002379e-02  1.0526104283384557e-02  1.3147103273992899e-03  1.3096416270410041e-02  1.2927201353036781e-02  1.9580763941570472e-02  1.9489174976155113e-02  6.5710928532564669e-03  6.5703741877429379e-03  1.6302280691457841e-02  9.7790029821172280e-03  2.9515796379297320e-02  2.2810295456596383e-02  1.5122732552904164e-11  4.8819385860793228e-03  1.0626040549180156e-01  3.2232322114371394e-03  3.2356486906816645e-03  -6.0723836262293327e-12  9.7610441211019514e-03  1.9574597036181998e-02  1.6324954109066727e-02  9.8182887567436154e-03  1.6258674495638299e-02  2.8885773716255430e-02  1.2804948981022524e-01  1.4863680376619687e-01  1.4236626867808247e-01  3.6167509300959230e-02  2.9092867420782521e-02  2.2928751511001516e-02  2.6094615955656701e-02  2.2705554932718638e-02  1.3047239559437247e-02  3.3328912879741879e-02  1.1894191923407696e-01  1.3155163996824218e-01  1.2405384060840435e-02  2.5398253264605330e-02  2.0161783931120694e-02  3.2203270011321700e-02  7.2287220605260711e-03  2.5331411051644462e-03  8.1494143970950970e-03  1.3954142435426253e-01  1.5350399769077896e-01  2.3827403035385970e-03  9.3707743382413999e-02  4.8768662879882605e-03  1.7528625568455358e-02  1.4955462708718299e-02  2.7639717910927040e-02  5.6998039323702086e-03  1.0691646019803982e-02  2.1948234520460706e-02  3.0521196767640486e-02  2.8326113133749050e-02  -6.7693594074748636e-11  2.3021228792767173e-02  1.5412951811880807e-02  1.7959782642897135e-02  2.4511671395973652e-02  3.3926880929640878e-02  2.9730898528399097e-02  7.1254766991072785e-03  4.6967781149216320e-02  1.0277233810150905e-02  2.7398493705279588e-02  1.8460976318779004e-02  1.4408396806399365e-01  1.2175951568934124e-01  1.5835401514092506e-01  1.3827867624912069e-01  3.1781988040517947e-02  3.0219620827045900e-02  2.3717600168565018e-02  1.9209534699995920e-03  1.5928340501941128e-03  1.5863419392626113e-01  2.1078465497477175e-02  1.4276556110694763e-02  1.1546103337610883e-01  1.3121448821620538e-01  5.7598811705330676e-02  8.7817721216474458e-03  1.5463147591951226e-01  1.1362177552490211e-02  1.4895195053531757e-01  2.4249072173063470e-02  3.8286019265576293e-03  3.1763783931300242e-02  1.3050312033894665e-01  3.0873880417215199e-02  1.2649842189901372e-01  3.2764537665388595e-02  3.0511407703677041e-02  2.9806591986204133e-02  1.7726644755097751e-02  1.9741392821680782e-02  2.1273311610302634e-02  2.6681236546984333e-02  1.1360110176798815e-02  2.4715967882394919e-02  2.1248278297106103e-02  1.2432052538845632e-02  2.3504645623278683e-02  1.3267287042675033e-01  3.0088205295757842e-02  2.7878476969827422e-02  3.3960262324201296e-02  1.1245618435260464e-01  1.2707505025743829e-01  1.2255774380794733e-01  1.3111512133520289e-01  1.4700953843645236e-02  1.1627414673951636e-01  2.8964117603016933e-02  1.4438080602235584e-01  1.3946494680997920e-01  1.4638125642155811e-02  1.3466256480897205e-02  8.8741642816864263e-03  8.1078918230249510e-03  1.7987058692279304e-02  1.7928684792837150e-02  8.1568904710050145e-03  1.5604862052101787e-03  3.3035382839310325e-02  9.0394443992668314e-02  2.4595652540312474e-02  2.7392684244451581e-02  2.7775859927384124e-02  1.1420657333973197e-02  4.8097060111645185e-03  4.8684993010664757e-03  2.9325151715418211e-02  2.0334230658564201e-02  2.5142457795769898e-02  1.1844630371421735e-02  1.2782056636228786e-01  1.3204481289900036e-01  1.5655874719665303e-01  1.5211101503021750e-03  1.2604729434655142e-02  2.1415955610743751e-02  1.8698548864659652e-02  1.6708979040514168e-03  3.2910693386562291e-03  4.4138328579676513e-03  6.0881529493497710e-03  7.1848309151757266e-03  3.0692624925719673e-03  1.0757011188508643e-01  3.3649236043125835e-02  2.1787614749488177e-02  1.1929052906928132e-01  1.3886831096392856e-02  1.1145328630654127e-02  1.9990957829637397e-02  3.9204524069566624e-03  1.6156427521552524e-02  1.5138192562528425e-02  2.3735184203949398e-02  9.3761551713780755e-03  9.0564503164046462e-03  6.9634146386932999e-03  2.7184683871629107e-02  1.3524009117968208e-01  1.3084289412227920e-01  2.3747225525545906e-02  2.6009230901597912e-02  2.1696896989897151e-02  1.4078496400161314e-01  1.7186455107048051e-02  1.8786703986884767e-02  7.3977984802931496e-02  7.9526471525253925e-02  1.2386979006160621e-01  8.3964302783868534e-03  1.2981317386903544e-03  8.0624696376547244e-11  3.1795429177959057e-02  1.3531880297434673e-01  1.4732459438254786e-02  9.9212262579071786e-02  1.0953106841552729e-01  1.6395302302166646e-02  1.6531357581849999e-02  2.3200070189964291e-02  2.9294953988657731e-02  2.4840749452759339e-02  2.9043956309948556e-02  1.2079706827504810e-03  2.9990496042570119e-02  1.3700613889513423e-02  1.5405700063742044e-02  2.0717921167194706e-02  2.8421624347937567e-02  1.0612258567614703e-02  2.2058835305178801e-02  2.9074113473820749e-02  1.4504201200209044e-01  5.9226213225465870e-03  5.9099042130831879e-03  3.0342516647568447e-02  1.0149639650913721e-02  6.8887496526202569e-03  1.4311925695884234e-01  2.7238755075314734e-02  1.4776615197963958e-01  5.9533431707568373e-03  1.1922652829188222e-02  2.6700413658590192e-02  2.6338965223719688e-02  1.5581659796575770e-01  1.4794699524819734e-02  1.0602845274208867e-02  -1.5298443859522600e-10  3.2826038949599623e-02  1.6452730890440795e-01  1.7353690315455812e-02  4.1877950119120759e-02  4.9663661771854025e-03  2.4237674895942772e-02  1.3872388258497503e-01  1.5122732552904164e-11  -2.4574790392063640e-11  1.4771601480058874e-01  8.2095566325807931e-03  1.6215056746856572e-02  1.1705251117840067e-03  2.0806678944303894e-02  1.8800286795702444e-02  1.8836384028038139e-02  2.5330420827189747e-02  3.4797665820813097e-02  3.3038588933927381e-02  3.3717854212905705e-02  1.3596196462273547e-02  3.0314620976900818e-02  3.1360990257158293e-02  3.6496134659719168e-03  2.2408982434595565e-02  4.0185160398228713e-03  2.8184516588523782e-02  2.2527244625540191e-02  2.3724620795173939e-02  1.2091308219811914e-01  3.0118767196958651e-03  1.2549153901752372e-01  2.5786860308334828e-02  2.6788404534865702e-02  3.1865982469834381e-02  1.3211458103913824e-02  7.3956464923583118e-03  1.7262457199101543e-02  5.6438658234306278e-02  7.9174186541704286e-03  1.7453188518687657e-02  1.9494942334571306e-02  1.5356049376645864e-01  1.4207651395805473e-01  1.3468635963390546e-01  1.3544368194645370e-01  1.4091410188547446e-01  1.3759290101440147e-01  1.1327621699438338e-02  1.1857339220164835e-01  1.2392649646486251e-01  1.2848296998217548e-01  1.0099962630180209e-02  2.2466722034307943e-03  2.8533782288281705e-02  2.7228160994814024e-02  1.9077100762961020e-02  4.1186186589209674e-03  1.1396768309930713e-01  1.4164853612413071e-02  1.5235084597606377e-01  1.6673142536680910e-01  3.2765886997763928e-02  3.1413611013740891e-02  9.4094196416261017e-02  9.1966780690474238e-03  4.9614277292415613e-03  1.2909190632029335e-01  1.2567790573914014e-01  1.2646528965501191e-01  8.8971925702919130e-04  2.4671539312273840e-03  2.9607658072928239e-03  3.0129275300913659e-02  2.9254560065191164e-02  1.3862053784674807e-02  3.7475581553042051e-02  9.6414575319074616e-03  6.0435726390245394e-02  1.4007066416676944e-01  1.2618450359090463e-01  4.5907361315650772e-03  1.9359432731249820e-02  3.4004917862765868e-02  1.1881774538815701e-01  1.2105063884161218e-01  2.3774689837787549e-02  1.7087123949434926e-02  1.3483781327834392e-02  1.5508412651796229e-02  2.7474527794884979e-02  1.2288968022217642e-02  1.1658557671517794e-02  9.7618309935091556e-04  9.5749881363524944e-04  1.6001705210368475e-01  1.6248934978134791e-01  1.4659281305098715e-01  1.4832754226176514e-01  2.9462522630904209e-02  2.9388221268393137e-02  1.3399875320269908e-02  9.5549307871739646e-03  7.8671018243145450e-03  1.1768508200502774e-01  1.1965752269112381e-01  1.3316840010003644e-01  1.5583705049847544e-02  5.9997731215804262e-03  3.2968541030430544e-02  1.7034388226623667e-01  3.0778421085407931e-02  9.0207922698192101e-03  1.0993623887914158e-02  1.2729808574113308e-02  1.3272254456368604e-01  3.3862027877368406e-03  1.3138034866255796e-01  1.1596218283952073e-01  1.5330246992117855e-02  2.2791786887356429e-02  1.2421854201801374e-01  2.5018160519691482e-03  1.7378179136545453e-02  3.0640991081097961e-02  1.3647932512453562e-01  1.4463215721993578e-02  1.0283045258252422e-02  1.4232007622104847e-01  1.3142271112671558e-01  7.9614978921758769e-02  2.9462167786893048e-02  2.9633963076103938e-02  2.5104521094410928e-02  2.5203716663101935e-02  9.2558333281007974e-04  1.6021564627990834e-01  2.0783070010840267e-02  1.0354454977353761e-01  1.2658770604481207e-01  3.3628801639655433e-02  2.6125121786179695e-02  4.9829430185828636e-03  7.5723356777463849e-02  7.3168090152192023e-03  1.2819097359852225e-01  8.1144219960717773e-03  7.2970268439872324e-03  6.4248949893017746e-03  1.1949497328333680e-01  1.6357016905399469e-02  2.6537862412405414e-02  1.1554837133493581e-02  2.7523956219062239e-02  2.6260352814834367e-02  1.2670531093132088e-02  1.2972470927784197e-02  1.2259520958462944e-01  1.4102485051943858e-01  3.8566291247563683e-03  1.8642705158766693e-02  1.1335867610853750e-01  3.3772085311126791e-02  1.4891358570715479e-01  1.0001274917169407e-02  3.2892719896697238e-02  1.8117570456028551e-02  4.7290220676328674e-02  1.6853190184922599e-02  1.8793406638105921e-02  3.9386515251335665e-03  1.7917110753933409e-02  1.6293419033746911e-02  1.4251745752365275e-01  3.3061999359223666e-02  3.2046425555626173e-02  2.9077475903085105e-02  3.3732115577364719e-02  1.5916459593122607e-02  2.6885670515524013e-02  2.6224517190370483e-02  2.6757706921054593e-02  3.1922648894937747e-02  1.0731030755378564e-02  2.1861430947832047e-02  1.1088552843012829e-02  2.1535027081196149e-02  1.9721228341908648e-02  1.9985061231435872e-02  1.2193708534111726e-02  2.0433485783810462e-02  5.3515644611092685e-03  1.1826685687487706e-01  2.2691509045846301e-02  2.3927203113920673e-02  1.4167010197522138e-02  1.2621386858774949e-02  3.0890279163946873e-02  2.9970502933053755e-02  1.3570657780096217e-02  1.4339663015771543e-02  1.5860683835152732e-02  1.0698904121520431e-01  1.1137778268172871e-01  2.8396051067632731e-02  8.9664456606449120e-03  1.2104069644507214e-01  3.2394227300157983e-03  4.0900649511504423e-03  2.1108705290734876e-02  2.1590421731901019e-03  3.3829178194017651e-02  3.3342487108022463e-02  1.9601266485103179e-03  8.6753015446392433e-04  1.0145098826862695e-02  1.5601015969382449e-02  2.7590961989560403e-02  2.8032956832506374e-02  2.8730730076836072e-02  2.9619017876964228e-02  1.5894124600198922e-01  1.4387074671838748e-01  1.8811083722818003e-02  2.5969913326110500e-02  1.3186249905862801e-01  3.0494509191262169e-02  8.3615800526310672e-04  1.8932033793831707e-03  5.7526232798451264e-03  2.1577365971851546e-03  2.3613304979473219e-02  8.0928605266761006e-03  9.4291465450481483e-03  3.0827399956310005e-02  3.0837995015727135e-02  1.5695234527271677e-02  1.5853711704250019e-02  2.8800409007486531e-02  2.9862578183871495e-02  2.8032643295114606e-02  2.4477863081151335e-02  2.5066742552686455e-02  2.1012320529813094e-02  2.0329397907766271e-02  1.9543682958422230e-02  2.5020217652547770e-02  1.3063925432681389e-01  1.3117324332438274e-01  1.8215116762564560e-02  1.8482740785141730e-03  2.3509705081134671e-02  8.1950074114456144e-03  2.5952084057623198e-02  2.2886434188215347e-02  2.9396132943843196e-02  1.8675528100710194e-02  1.2196116270148535e-02  4.8926420162707920e-03  4.0422761432392018e-03  2.7103220030779841e-02  5.6779778899535144e-03  2.1779095652243764e-02  2.5496095707222929e-02  1.3033543851872459e-01  1.4114338151452518e-01  2.4560633385613272e-02  2.0422050805049309e-02  8.8482964225564359e-04  2.3392542749654478e-03  3.3996859602668558e-02  2.5393255476379096e-02  1.8849862098644091e-02  1.7024565878628405e-02  1.0593320837067488e-02  2.6587623644758664e-02  1.0584452900060250e-02  2.9661157430707536e-02  1.8744774010851197e-02  7.6428627551225774e-04  1.2444110780753376e-01  9.9508447719355422e-02  1.2969421156135741e-01  1.2603463162979250e-01  1.5127910399835129e-01  1.4677692647303098e-01  1.3681338735736931e-01  1.4844541035231809e-01  3.1029064884423065e-02  3.2226732782532838e-02  7.9942404391903990e-02  4.0113614239514352e-02  8.0607130078021068e-03  2.3784831238424928e-02  2.8251547215487470e-02  1.3943150997056069e-02  5.6787327688152828e-03  2.2047195781556658e-02  2.8410489440457060e-02  4.0018075017768072e-03  5.6411984531374686e-03  2.9218364978263890e-02  1.1424502182784809e-02  1.1908620226469029e-01  9.4070662114785847e-02  8.7868858897878904e-02  2.5727405746437549e-02  4.4701972978407317e-03  1.5808501687893284e-01  1.8061867806960966e-02  2.4412944037082138e-02  3.3607219170894050e-02  5.1078704393304919e-02  1.2094940839728993e-01  2.0509828031100654e-02  2.1012468470779873e-02  1.1765187756210538e-01  2.4335212603899356e-02  1.5673026829282011e-02  1.6722422151506228e-02  6.9263752203872746e-03  1.7973603753949907e-02  1.8287716450492986e-02  1.1821203896645231e-02  7.2919367699891113e-03  2.4488920525664447e-02  1.1699627221209706e-02  8.7989291329449212e-03  1.2608584101811720e-02  2.1009583909354038e-02  6.4957506450602541e-03  1.6681990772223342e-02  1.4294181943092671e-02  3.2507947988784647e-03  2.6574275906285729e-03  1.3065543630316892e-01  9.0001826902030832e-02  3.1069918818466040e-02  2.7752658318475884e-02  1.9835073636804413e-02  2.2537476512014824e-02  6.5264553282318536e-03  6.7626598043420789e-03  2.6913350199705838e-03  2.6465480364180328e-02  3.7932000402088914e-03  9.3984332457093481e-03  1.3215943173123601e-01  8.6839015463692545e-03  1.1909158378009240e-02  8.4676534243375914e-03  5.6487445783676990e-03  1.4300279595530879e-01  7.4822049205154715e-04  3.3544835379260826e-02  1.4957571982986017e-02  1.1211768742791832e-01  1.9757490411670010e-03  1.4690815233700199e-02  1.3243923527612594e-02  6.9331529854319276e-03  1.5772510322892319e-01  1.5090683477647606e-02  1.8293954305893444e-02  1.4303346173561243e-02  3.1160915368369544e-02  1.2889980774114662e-01  1.4296500676745169e-01  1.5817053860837892e-02  2.0358004997020496e-02  1.3229987481315547e-01  1.4192088905823222e-01  7.7559128217651579e-03  3.2411120893415850e-02  6.1281660784045190e-03  2.3040806785571511e-02  2.7431839543941700e-02  1.5141380576910128e-02  9.2181636453073819e-03  2.3689471973883110e-02  1.0737074703267704e-02  1.4696782874971309e-01  1.3484388471322004e-01  2.5034161429848389e-02  2.2279084249131584e-02  2.3158997849836428e-02  2.4270117323797212e-02  1.2741588256925122e-02  1.7216738716316324e-02  8.8732438394666601e-04  9.6370713452543170e-03  8.6212298362101716e-03  2.5205648294350422e-03  1.6707667782487483e-02  5.3485358987562246e-03  1.8615558791435136e-01  1.4514450563483103e-01  1.5653390727826393e-02  7.1362250913706727e-03  2.5154656433830747e-02  1.3279394518703985e-01  2.1467461924546020e-02  1.5446467667539461e-02  1.3124887711122937e-01  1.0880524117874124e-01  5.1952416955941341e-03  1.4299751001490421e-01  1.2075001720928961e-01  2.0233768321871032e-02  8.2283411706450729e-03  1.8063441437879017e-02  7.1487964507850416e-02  2.2420768130493755e-02  8.5638614082872797e-03  2.9714258555658655e-02  2.3670035759317896e-03  1.4463125523355874e-01  8.8294633275362213e-03  2.3109550810951677e-02  1.3537606075774922e-02  7.6179523800201480e-03  1.5122732552904164e-11  1.2101861181343611e-01  3.1318650073731850e-02  3.2036727532871574e-02  2.8008251095661529e-02  2.9852687453537058e-02  1.3079765916335338e-02  1.3326626594454416e-01  1.3598095444698247e-01  8.4431593493975452e-04  3.2122328829251733e-03  1.1939918776931152e-01  1.0577857997353192e-01  1.5685810470611686e-01  7.2047103044066124e-03  1.9142070339257019e-02  1.7747131080156256e-02  1.7232492696854292e-02  1.6739510961376675e-02  1.8060798529295489e-02  7.8254890229808877e-03  2.6503916507238115e-02  1.4420562574745008e-01  1.9468657761741979e-02  1.8500329757275256e-02  3.2659385253646839e-02  6.8245413968761659e-02  1.2231004934058037e-01  1.1026489701094722e-01  7.6819504109067339e-03  1.3960245858743897e-01  4.1742650025629380e-02  3.3688504106240746e-02  2.7234580681896940e-02  2.6712637397175210e-02  2.5736930036869984e-02  2.5373742614946994e-02  -6.7693594074748636e-11  1.3962757876309170e-01  1.1664066242918131e-01  2.2435854717491408e-02  2.1811355009006102e-02  3.1914201649109068e-02  2.1704698025753935e-02  1.1154748390521638e-02  1.3448961944770566e-01  1.2591698438996410e-01  4.1542855666967735e-02  2.5650647271590957e-02  8.5700665053855915e-02  2.7920531850592806e-02  4.5528624960606374e-03  1.7066886175792016e-02  1.3290053258931636e-02  5.8600247561506572e-02  4.8313575866769931e-02  3.4421805945063257e-02  1.0196598849961798e-02  1.4911865571537255e-03  1.6486545303507130e-03  6.8437427109064794e-04  1.0192068408597400e-01  1.0173655924130863e-01  7.7677002843676100e-03  5.0346794196218306e-03  2.4547163393355938e-02  3.0538390643911111e-02  2.1455178734629717e-02  1.1025131153849814e-02  1.0106417414971380e-02  1.4480848726818552e-01  1.4415612657996771e-02  2.4174572044319990e-02  2.5443917285873644e-02  1.4728181376323513e-01  2.0448145563993391e-02  1.2013772312203573e-01  3.3631348864882893e-02  1.3210759461226196e-01  2.3189121534275610e-02  2.1732704230574249e-02  3.3541266756087075e-02  1.1871572014284902e-01  3.4231185334411114e-02  2.8704507515810943e-02  1.5122732552904164e-11  2.8306260740664505e-02  2.9169575484085705e-02  1.4792794478767742e-02  1.4072240698291499e-02  1.1498892285536914e-01  1.1188988554038451e-01  6.6215395458907580e-03  3.3191726104985657e-02  6.1337491085008151e-03  2.6100643625166149e-03  1.5910963030489025e-02  1.5062971886162329e-02  1.4808751505867478e-02  9.6725366140972491e-02  2.0153895486427181e-02  2.1965265835220592e-02  2.3848765664705361e-02  1.3803763505044649e-02  2.6627197368443514e-02  2.5860972580170814e-02  2.7041540475629500e-02  9.0984301696486556e-03  9.9747951309883554e-03  6.5799442094063385e-03  6.2485333600636617e-03  1.3597121142224355e-01  1.3873511454027959e-01  1.1211034824609393e-02  1.5077612909569441e-01  1.2017656928469143e-01  1.0453106467436211e-02  2.9408408434222297e-02  2.8626190729240684e-02  2.8933430109653269e-02  2.3838546781548967e-02  3.0497492367311158e-02  1.8223121203174715e-02  1.0262812522846021e-01  7.6421044829506086e-03  2.2153906000166507e-02  2.6854700714628147e-02  1.0785216378583862e-01  3.1020627563599454e-02  1.2081428740517694e-02  2.3291010492990715e-02  1.3083776746336401e-01  1.1336466179777518e-01  1.4343000533753503e-02  3.0957403140351416e-02  2.0122038868320109e-02  1.4178717915644677e-02  1.9338011263545663e-02  1.4536667667863970e-01  1.0665479592092894e-02  1.2294863172481484e-01  1.5792806817469574e-02  1.0022917215910479e-01  1.5979133211432470e-03  9.5410684340460350e-03  1.2067799379912396e-02  1.3180065481785927e-01  2.0892609458349257e-02  1.7488100582357249e-02  1.7325042703906612e-02  1.6723345008741064e-02  1.4065145727606373e-01  3.3397043011705291e-02  2.8432863179146787e-02  5.40662