<?xml version="1.0"?>
<VTKFile type="UnstructuredGrid"  version="0.1"  >
<UnstructuredGrid>
<Piece  NumberOfPoints="1404" NumberOfCells="2604">
<Points>
<DataArray  type="Float64"  NumberOfComponents="3"  format="ascii">0 0.41 0  0 0 0  2.2 0 0  2.2 0.41 0  0.2353553390593274 0.2353553390593274 0  0.25 0.2 0  0.2353553390593274 0.1646446609406726 0  0.2 0.15 0  0.1646446609406726 0.1646446609406726 0  0.15 0.2 0  0.1646446609406726 0.2353553390593274 0  0.2 0.25 0  0.6923879532511287 0.188268343236509 0  0.7 0.15 0  0.6923879532511287 0.1117316567634909 0  0.6707106781186547 0.07928932188134523 0  0.6382683432365089 0.05761204674887133 0  0.6 0.04999999999999999 0  0.5617316567634909 0.05761204674887134 0  0.5292893218813453 0.07928932188134524 0  0.5076120467488713 0.111731656763491 0  0.5 0.15 0  0.5076120467488713 0.188268343236509 0  0.5292893218813453 0.2207106781186547 0  0.561731656763491 0.2423879532511287 0  0.6 0.25 0  0.6382683432365089 0.2423879532511287 0  0.6707106781186547 0.2207106781186547 0  1.1 0 0  0 0.205 0  1.1 0.41 0  0.55 0 0  0.55 0.41 0  0.275 0 0  0.8250000000000001 0 0  0.275 0.41 0  0.8250000000000001 0.41 0  0.6875 0 0  0.61875 0 0  1.65 0.41 0  1.65 0 0  1.375 0 0  1.375 0.41 0  1.925 0 0  1.925 0.41 0  1.5125 0.205 0  1.7875 0.205 0  0.9625000000000001 0.205 0  1.2375 0.205 0  2.2 0.205 0  1.99375 0.2152743902439024 0  0.4125 0.41 0  2.0625 0 0  2.0625 0.41 0  2.2 0.3075 0  1.7875 0.41 0  1.375 0.1486128048780488 0  1.5125 0 0  1.7875 0 0  1.5125 0.41 0  0.9625000000000001 0.41 0  0.4125 0 0  0.1375 0 0  0.1375 0.41 0  0.6875 0.41 0  0.9625000000000001 0 0  1.2375 0 0  1.1 0.1486128048780488 0  1.2375 0.41 0  1.65 0.1486128048780487 0  0.823495464168302 0.2603780552348366 0  0.3738707794507017 0.2720196349488618 0  0.3662291281331582 0.1311456406657909 0  1.676715909090909 0.2793064024390244 0  1.126715909090909 0.2793064024390244 0  1.348284090909091 0.2793064024390244 0  0.8287581077665108 0.1302150898054257 0  1.894702181800738 0.1282910975492754 0  2.092797818199262 0.1282910975492754 0  1.85625 0.3075 0  0 0.3075 0  0 0.1025 0  2.099172119769978 0.25625 0  0.4752414543992246 0.3180372603390748 0  1.99375 0.08395950269330846 0  1.459960956013612 0.3075 0  1.569025960719943 0.2986889805672169 0  1.03125 0.3278689922742084 0  1.959375 0.3126371951219512 0  1.749222215368287 0.1025 0  1.275777784631713 0.1025 0  0.9228016959331474 0.3075 0  1.000777784631713 0.1025 0  2.2 0.1025 0  1.225938124459196 0.3075 0  1.550777784631713 0.1025 0  1.44375 0.07430640243902442 0  1.16875 0.07430640243902439 0  0.7562500000000001 0.3358727844323386 0  0.89375 0 0  1.899250267340833 0.2229966846119207 0  0.61875 0.41 0  1.766482954545455 0.2934032012195123 0  1.046078563095834 0.2389031808701145 0  1.421109702350723 0.2261157654379721 0  0.07567171807980319 0.25625 0  0.2511897295290552 0.3235829392832554 0  0.07655002503762308 0.1488653460959645 0  0.1377245246847496 0.3206030474919778 0  0.6694099692696568 0.3242771941727899 0  0.9168971191497528 0.1295727156104653 0  0.7562500000000001 0 0  2.118919042110979 0.3422084711244843 0  2.13125 0 0  0.06875000000000001 0 0  1.30625 0.41 0  1.597888256393107 0.2173787389261347 0  0.34375 0.41 0  0.2493272016354703 0.08091360081773515 0  0.5588896233436766 0.3264056208677571 0  1.829299675393195 0.07400700849299596 0  0.1334079128307869 0.08523463035786674 0  1.71875 0.41 0  0.06875000000000001 0.41 0  1.16875 0.41 0  2.038220665644273 0.332420740103091 0  0.8810647413215221 0.2027360103977071 0  0.34375 0 0  0.7453891198966415 0.2471459041008237 0  0.42112093004955 0.1988123139090554 0  0.8314023090855964 0.3351170841770613 0  0.89375 0.41 0  0.7906250000000001 0.06615386481594063 0  1.452769549894695 0.1548122580621249 0  1.369219062229598 0.07430640243902442 0  1.30625 0 0  1.07420695807087 0.07430640243902439 0  1.720943423819132 0.1714577452753128 0  1.157188124459196 0.205 0  1.304056576180868 0.1714577452753128 0  1.67579304192913 0.07430640243902437 0  1.209670467133757 0.136210026696477 0  0.4312800784902823 0.08036147352247747 0  0.8723959680194693 0.07066860609690805 0  1.025335513626278 0.1700681449722324 0  0.7945632284247136 0.1940204203251442 0  0.378125 0.3452261501101892 0  0.3307109909790086 0.2037165635083759 0  0.3009701032039409 0.2702970083403109 0  0.20625 0.41 0  1.58125 0 0  0.4812500000000001 0 0  0.9838963872396855 0.2722244191167347 0  0.06772484939107212 0.3260067317374387 0  0.20625 0 0  1.58125 0.41 0  1.631724228912893 0.3381867502687533 0  1.825608881788174 0.14499488549201 0  1.85625 0 0  1.44375 0 0  1.44375 0.41 0  1.85625 0.41 0  2.13125 0.41 0  0.7562500000000001 0.41 0  0.4812500000000001 0.41 0  1.16875 0 0  1.03125 0.41 0  1.03125 0 0  1.71875 0 0  1.99375 0 0  1.99375 0.41 0  0.9408708167433545 0.0651989315768642 0  1.340625 0.3489494290853124 0  1.134375 0.3489494290853123 0  1.700180620188976 0.3438659752031281 0  0.29668452290037 0.1318471691375986 0  0.3175441051360096 0.06496934809856265 0  0.06509151636162461 0.08140814015999148 0  2.135782184673599 0.07126652247502523 0  1.668441847249787 0.2129203728327609 0  1.295782514339747 0.2378437748815763 0  1.409375 0.3520314716057996 0  2.129248544730567 0.1906135162504124 0  2.060771381434487 0.1989445750470348 0  2.013252586573865 0.1496169464686054 0  1.942766402200229 0.1734448904596831 0  1.895522487186454 0.06076163953489683 0  2.069553871656643 0.06605731020975725 0  0.4670911801404742 0.2498408582391372 0  0.7622743084658112 0.1264100838268133 0  1.274680914880868 0.3520219391081363 0  0.3148669572599245 0.3331753056385887 0  1.614713220494657 0.09473434380863296 0  1.72990325744076 0.2380068107952482 0  1.356580098625191 0.2120393231351682 0  2.034370752044885 0.2668681600792073 0  1.51768709249349 0.3426260931494756 0  1.561883724969884 0.1650446847858835 0  1.197344062229598 0.2523725417393646 0  1.804085235518364 0.3468178408964637 0  1.817887819205233 0.2589243285818559 0  1.905897727272727 0.3485060975609756 0  0.7296439733931823 0.06337466644369745 0  0.4250935971865949 0.1394919578475796 0  0.3773030136511669 0.05130372097998036 0  1.192836486056382 0.3562350748565544 0  1.1029124365364 0.226143510831178 0  1.28257088594801 0.2944411014911587 0  0.1905185804731426 0.06029880676029167 0  1.474860187679412 0.2504218616229368 0  1.406767003493824 0.2829282258560709 0  0.5209826960981064 0.2830664557824064 0  0.5131119502780163 0.3617405848213254 0  0.1948220106098172 0.3081993407644811 0  1.845656689180403 0.1998310418452388 0  2.144958525570388 0.2909790873294231 0  2.2 0.15375 0  0.8833025251326762 0.2625402923007629 0  0.171875 0.3653875762360952 0  1.57794966442982 0.3540357145964566 0  0.446875 0.366068291212731 0  0.4272051715206439 0.2891929346190664 0  1.508991196088596 0.1421783375065625 0  1.50436820029908 0.06143401634903343 0  1.223857000523521 0.08235548624535324 0  0.6137904613287555 0.3066826366281556 0  1.153316824384777 0.1289850171317838 0  0.9751573703656133 0.327632618473408 0  2.148922302309752 0.1258841779285271 0  0.9281250000000001 0.3643758685795699 0  1.621993280276081 0.2841214267927899 0  1.550118654119087 0.2461998729100966 0  1.327182649291491 0.1216967252533594 0  0.9939955742738924 0.04663549843168518 0  1.753125 0.04556020050186112 0  1.271875 0.04556020050186116 0  0.9734326767716519 0.1506854560854393 0  0.103125 0.3675775577080512 0  1.94956388244759 0.1180512551534177 0  1.949997712993411 0.04965831614304109 0  0.717433898748555 0.295596016333797 0  1.771961817615021 0.1530278789497521 0  1.909246823951428 0.2812757146784527 0  0 0.35875 0  1.050632804931928 0.1226269704412814 0  0.05695108326502596 0.2024009637347154 0  1.948575539857022 0.2445328248721197 0  1.697271520964565 0.1233917627620729 0  1.065625 0.3689344961371042 0  1.085849084308977 0.3170853572226867 0  0.1015495998772944 0.04226029099983852 0  1.577403511714593 0.05463601888079143 0  1.751571320346033 0.3651102912045228 0  2.2 0.35875 0  0.7441773632462837 0.1786786606458751 0  0 0.05125 0  1.466879772203159 0.3611261772912453 0  0.6282230348858767 0.3577675483994025 0  1.990280163552011 0.3564754268533217 0  1.17471064520912 0.2990917256188288 0  0 0.25625 0  2.2 0.25625 0  2.2 0.05125 0  0 0.15375 0  1.853978576207987 0.35875 0  1.515638456102889 0.2882700110184686 0  2.150453692751374 0.2387066338105111 0  1.323782677156475 0.04897634338873398 0  1.409375 0.03715320121951221 0  1.406484531114799 0.1087852750766809 0  1.134375 0.03715320121951219 0  0.721875 0.3729363922161693 0  0.7941695928236929 0.3696489254637395 0  0.7934827162619036 0.3013409431456604 0  1.627401732573545 0.04552157221025036 0  0.9352049974617431 0.2507047965699472 0  0.8763260682738339 0.3611103317460093 0  2.045405893604797 0.1105340662939892 0  1.255408269734577 0.1577307500159216 0  2.028125 0.03707597992059326 0  1.003030137506755 0.3689344961371042 0  1.248258025468107 0.2565907092181813 0  1.203125 0.03661323374043041 0  0.4800125512335631 0.0549472816999725 0  2.072662025974815 0.2975086504196739 0  0.240625 0.3729825336867542 0  1.113252391110535 0.10238286244357 0  1.071052763974265 0.1885202618768825 0  0.8738809401657862 0.3106483608284829 0  0.6786819423003397 0.2677558482644021 0  1.887722846421017 0.1760882698830035 0  1.472640588990488 0.1118278026240017 0  0.5843750000000001 0.41 0  1.865937103925594 0.2604137786483804 0  1.463913572748262 0.2030442564990043 0  1.376426316059077 0.3186741374914345 0  0.1038643885363755 0.2162701735320032 0  0.1769473813227781 0.1070849728467114 0  0.458787839809176 0.171541653775316 0  0.240625 0 0  0.04179569703428024 0.2877217852556549 0  0.1258346557601885 0.2699740073054968 0  1.722140693354707 0.282908100935778 0  0.41206179117512 0.2448172567039922 0  0.3702471778075604 0.2265217604228704 0  0.3714881805374215 0.1786967818665642 0  1.77397096061971 0.2481483237422926 0  2.105123889160691 0.03743885948498647 0  1.001138337938679 0.229719337663998 0  1.051242910646791 0.2854826559431138 0  1.395420985247586 0.18
[...]
<PointData  Scalars="f_43"> 
<DataArray  type="Float64"  Name="f_43"  format="ascii">1.3855955462586159e-01  2.2925215497796511e-01  3.7836201180923341e-11  -7.0730813118558086e-11  1.0750277387411336e-01  1.1537851599676462e-01  9.6772438520584370e-02  9.9507851912201656e-02  1.7523580267853639e-01  1.5671279402054791e-01  1.0618465109706231e-01  9.2104337023707392e-02  2.2450794801056582e-02  3.3762827663490536e-02  3.0972412268534564e-02  1.7011722342189676e-02  6.5082794240536354e-02  1.0067376885908757e-02  -4.7074334824527926e-03  1.0685190366914701e-01  1.4934156913573610e-01  1.5020697931392030e-01  1.2056227320305460e-01  7.2439956696622052e-02  2.3198712311631117e-02  -1.0632230654194117e-02  -1.4623006426127723e-02  4.1208439980338282e-03  3.2403855318455271e-02  1.3917084591429990e-01  3.1604927134922502e-02  7.0985234032784533e-02  6.8316113578020157e-02  1.3200585194451647e-01  3.7117376983397114e-02  1.1929472069307688e-01  3.6366844765693636e-02  2.7286558620445885e-02  2.4639677517172331e-02  1.6016279966488425e-02  1.5971174198111150e-02  2.4113653982123225e-02  2.3942628718648835e-02  8.0299604034623339e-03  8.0272450540976575e-03  2.0029137840336251e-02  1.2013026491850079e-02  3.6260006687464728e-02  2.8042521237910012e-02  1.2192158003086618e-10  6.0048432045951309e-03  1.0587975185729626e-01  3.9954563084589247e-03  3.9978930181662096e-03  9.5253802363297846e-11  1.1994611355641265e-02  2.4065531919629606e-02  2.0060835180239347e-02  1.2031744906591292e-02  2.0008095519352554e-02  3.4901978135982038e-02  1.3137713027959919e-01  1.4215174476992373e-01  1.3778090336807497e-01  3.6777682193678767e-02  3.6341558071525656e-02  2.8213729386863343e-02  3.2179343525234279e-02  2.7847216549532972e-02  1.6026067958588946e-02  3.9573739635278354e-02  1.1953357055204636e-01  1.3325690123350251e-01  1.5238693622855602e-02  3.1124494453703088e-02  2.4768857952468921e-02  4.0328038100737942e-02  8.8884519118940554e-03  3.1226717093708017e-03  1.0005913234960933e-02  1.3406963482581985e-01  1.5097339040514363e-01  2.9337305512698785e-03  9.3616430587105282e-02  6.0085251242374457e-03  2.1532284583153458e-02  1.8371349643017173e-02  3.3628197634803701e-02  7.0041201927315798e-03  1.3132365228227050e-02  2.7013098757014794e-02  3.6742341372528242e-02  3.5170475195026168e-02  7.1724452148045371e-11  2.8255766086706078e-02  1.8929207954482122e-02  2.2074350818260060e-02  3.0237335543235221e-02  3.7196701884636932e-02  3.7577315244446352e-02  8.7566935976078099e-03  4.7058516208866669e-02  1.2621496610613831e-02  3.3583399458402656e-02  2.2684279078313073e-02  1.3639984518892639e-01  1.1818101543271732e-01  1.5092825649943237e-01  1.3312032013708258e-01  3.0249752394672882e-02  3.7612864336386068e-02  3.2588865584565328e-02  2.3673374583451151e-03  1.9700944706504409e-03  1.5384355613054787e-01  2.5929417252604506e-02  1.7537911871327472e-02  1.1388806398350086e-01  1.2862267625373711e-01  5.6268980964071756e-02  1.0794299985151870e-02  1.4989833198603272e-01  1.4020836565211813e-02  1.4139277225650143e-01  2.9745950555154100e-02  4.7115282684451719e-03  3.8929899956508696e-02  1.3157040580299495e-01  3.2288009097486421e-02  1.2732484717432493e-01  3.8087538762842307e-02  3.6120321883877669e-02  3.8184294452367713e-02  2.1785353532608617e-02  2.4272515597657130e-02  2.6169207523625757e-02  3.3049136117376414e-02  1.3954227847835423e-02  3.0387873555848932e-02  2.6128208245244325e-02  1.5278083609985860e-02  2.8939420545592197e-02  1.3650945624830632e-01  3.7998593372210253e-02  3.4379835811696229e-02  4.0768967827475452e-02  1.1179131103127123e-01  1.2726392629427030e-01  1.2113854488369126e-01  1.2758713896709548e-01  1.8030608779351618e-02  1.2379875424321160e-01  3.5290564372735866e-02  1.3700116817971925e-01  1.3628895025021318e-01  1.7990653252461204e-02  1.6542928965425436e-02  1.0904162460016716e-02  1.0002582779222866e-02  2.2093815460112735e-02  2.1986639246015113e-02  9.9964090494962642e-03  1.9670614449108659e-03  3.5841174687508442e-02  9.0666551805409917e-02  3.0311854554267194e-02  3.3321355641958150e-02  3.4472633557422298e-02  1.3989073778624829e-02  5.9800978893310595e-03  6.0010829972317039e-03  3.6716257061415521e-02  2.4966243363876772e-02  3.0753100780642181e-02  1.4555093766358130e-02  1.2477392558795908e-01  1.3238599528471184e-01  1.5190775277646809e-01  1.8757747478115136e-03  1.5483216263818655e-02  2.6316817267945644e-02  2.2972142078210227e-02  2.0584607346404767e-03  4.0519165325218756e-03  5.4356208043835940e-03  7.4876621574788936e-03  8.8546876035471723e-03  3.7922125287437659e-03  1.0694837643966990e-01  4.1051146407686437e-02  2.6802999957514111e-02  1.1766265404641243e-01  1.7058446832043151e-02  1.3690559994736270e-02  2.4569299855163193e-02  4.8225727005956802e-03  1.9851418309079293e-02  1.8596151507008735e-02  2.9146069575364860e-02  1.1519832382606718e-02  1.1124518959679586e-02  8.5603116800072286e-03  3.4300786955781752e-02  1.3775762486130796e-01  1.3288992735817062e-01  2.9123428726209651e-02  3.1938898998852806e-02  2.6649283201813187e-02  1.3747923164083953e-01  2.1115071673102278e-02  2.3078412566105686e-02  7.1643717190405201e-02  7.9716800483134703e-02  1.1833466455533408e-01  1.0317074218491517e-02  1.6000209515315944e-03  -1.3033180498834997e-11  3.8400212317803127e-02  1.3144881576570699e-01  1.8101259490200357e-02  9.9124118492233210e-02  1.0981393489585120e-01  2.0143925968270165e-02  2.0303582581899380e-02  2.8575601018812163e-02  2.5271393196605992e-02  3.0621593269268405e-02  3.5141747849850316e-02  1.4885653937787638e-03  3.5899317329585109e-02  1.6830748391353866e-02  1.8926039327798360e-02  2.5483320714090325e-02  3.5407758945527536e-02  1.3027989375988383e-02  2.7163288009393931e-02  3.5974873772677385e-02  1.3943717704948869e-01  7.2885343897512115e-03  7.2718727739058868e-03  3.0620818140695144e-02  1.2468152474575526e-02  8.4630722455636982e-03  1.3650007308134965e-01  3.3690388779830494e-02  1.4167144713578891e-01  7.3183112876356845e-03  1.4644575824521043e-02  3.2559940141738582e-02  3.2176745383539880e-02  1.4965666133408903e-01  1.8155267246834288e-02  1.3045119572628834e-02  -7.0730813118558086e-11  3.6058569182730878e-02  1.6115274702163696e-01  2.1313817234830081e-02  4.1569490145702992e-02  6.1066759711614722e-03  2.9719916691381090e-02  1.3449961855818884e-01  1.2192158003086618e-10  3.7836201180923341e-11  1.4513056303049079e-01  1.0069449951573160e-02  1.9919399808135816e-02  1.4417996373640269e-03  2.5619013447789794e-02  2.3103060655683277e-02  2.3158263687892252e-02  3.1306509121466458e-02  3.6465555717590629e-02  3.7088970074999020e-02  3.8811301185206523e-02  1.6694874781672048e-02  3.6922312471069363e-02  3.6894181089697192e-02  4.5023910342580527e-03  2.7567925036662465e-02  5.0037956738642232e-03  3.4137601523815619e-02  2.7672063094349678e-02  2.9233851304918568e-02  1.2732754749760367e-01  3.7083710198122849e-03  1.2233293464654467e-01  3.1855704959937781e-02  3.2968164633386747e-02  3.7921433802150364e-02  8.3059489004966829e-03  9.0908787459312978e-03  2.1214569626435816e-02  5.6623124207979304e-02  9.7259266106082543e-03  2.1445934756904306e-02  2.3945269401003225e-02  1.4485021123535760e-01  1.4101018216988867e-01  1.3564525164319294e-01  1.3352898616507136e-01  1.3409271761532518e-01  1.2953828438748932e-01  1.3914152254646069e-02  1.1920833520075080e-01  1.2489244899588194e-01  1.2956850169889952e-01  1.2406121232426490e-02  2.7742031567196518e-03  3.4970152192725305e-02  3.3266571223483192e-02  2.3447188845758644e-02  5.0224277831342392e-03  1.0892396691134203e-01  1.7398679521040284e-02  1.4943392989409052e-01  1.6228180395304015e-01  4.0322256999309254e-02  3.9084465970859898e-02  1.0598421803810111e-01  1.1295216617958048e-02  6.1004142281630477e-03  1.2877706682478327e-01  1.2056212240777847e-01  1.2347626531684620e-01  1.0840687779581891e-03  3.0148184292897221e-03  3.6391695009182858e-03  3.7216906789151495e-02  3.6412308945957796e-02  1.7029860326558469e-02  3.7846043905838164e-02  1.1844391552414332e-02  6.0548387219418298e-02  1.4421104077121102e-01  1.3041295208101109e-01  5.6452767672062511e-03  2.3787197451255456e-02  2.9292905586883564e-02  1.1656171192546512e-01  1.1852320664074463e-01  2.9246856122004412e-02  2.1049405829892589e-02  1.6562869738725030e-02  1.9023839972092924e-02  3.4129352731374560e-02  1.5069032230710586e-02  1.4317695908806750e-02  1.1901661700976446e-03  1.1791842168466914e-03  1.5568139396498298e-01  1.5821517015637565e-01  1.3847617639199467e-01  1.4281922486683490e-01  3.7605171145845794e-02  3.7575582226392457e-02  1.6460235292341360e-02  1.1735039037297428e-02  9.6731815968837953e-03  1.1732843555786568e-01  1.1469475221622075e-01  1.3223325718698040e-01  1.9080040552385651e-02  7.3766425792819819e-03  3.9955189976798346e-02  1.6285945340651267e-01  3.8981782580534211e-02  1.1036018511549251e-02  1.3507250882035667e-02  1.5615334117484751e-02  1.3537013413370438e-01  4.1722863084225278e-03  1.3207115542036749e-01  1.1439729580365607e-01  1.8832955355618960e-02  2.7959983336751312e-02  1.2478165053781608e-01  3.0819210139955660e-03  2.1365338194113289e-02  3.7565946247974581e-02  1.3424224900140655e-01  1.7767812637516801e-02  2.8748915106665187e-02  1.3576051182156595e-01  1.3151619430230546e-01  9.2686240572654260e-02  3.7026732633921214e-02  3.7338633250481118e-02  3.0818283733433892e-02  3.1034207441858530e-02  1.1405854126409550e-03  1.5183795671112588e-01  2.5528407610623312e-02  1.0361017808105209e-01  1.2279474257649636e-01  3.9025992765651371e-02  2.5351946533786352e-02  6.1360278828615014e-03  7.5115278280874068e-02  9.0022149164709683e-03  1.2100792723575712e-01  9.9764183205572777e-03  9.0030603983875541e-03  7.8992157255918065e-03  1.1853347049516043e-01  2.0094692516889865e-02  3.2513588344320700e-02  1.4193669911646827e-02  3.4147318576044840e-02  3.2527467176757974e-02  1.5575839921728400e-02  1.5934171302952372e-02  1.1982452585978810e-01  1.3662359345031097e-01  4.7437006835578431e-03  2.2915372261964728e-02  1.1347631628921181e-01  3.5123115255117396e-02  1.4557817621465849e-01  1.2287216290918800e-02  3.6181842846636475e-02  3.0245442362832574e-02  4.6312609241550569e-02  2.0708523020757354e-02  1.3367420025212153e-02  4.8686877300594608e-03  2.2011543669734294e-02  2.0017326265839522e-02  1.3549912661282720e-01  3.8933757863395362e-02  3.7072178830274104e-02  3.5037271915839691e-02  4.1490087303913140e-02  1.9552015363485251e-02  3.3387608467204677e-02  3.5171396933075354e-02  3.5571047388343012e-02  4.0485289085042300e-02  1.3181918590401513e-02  2.6875072871610318e-02  1.3620203951557795e-02  2.6491827155175826e-02  2.4250734417487971e-02  2.4553713975480680e-02  1.4978118803727252e-02  2.5125092676119593e-02  6.5857781659872487e-03  1.1434218829108601e-01  2.7931933250642062e-02  2.9485771227801227e-02  1.7402190289458698e-02  1.5504252937967608e-02  3.8783512951286792e-02  3.7555183220577250e-02  1.6671983307452478e-02  1.7614550596138555e-02  1.9501016521519275e-02  1.0649577479130516e-01  1.1045762713440520e-01  3.4539894026476406e-02  1.1010222152432490e-02  1.1857892603244455e-01  3.9864904667877548e-03  5.0318839383077007e-03  2.5974176074613189e-02  2.6590317234298773e-03  3.6764119109051023e-02  3.6804278679202967e-02  2.4139617276596670e-03  1.0685923303124646e-03  1.2459905654920281e-02  1.9151232434697886e-02  3.3917699473419480e-02  3.4685771503486486e-02  3.5403735830773470e-02  3.7609601246473251e-02  1.5601301577488932e-01  1.3905144837303751e-01  2.3129618420255588e-02  3.1732339491876392e-02  1.3338781399819483e-01  3.6450244601192630e-02  1.0256438381812756e-03  2.3319799073752267e-03  7.0737905170080760e-03  2.6640130935440989e-03  2.9021897678740628e-02  9.9473792379686007e-03  1.1584231590990915e-02  3.9146721074139287e-02  3.6786319470686453e-02  1.2972600878091066e-02  3.8371386078889048e-02  3.5893055281717066e-02  3.6224539541080396e-02  3.4250156570513363e-02  2.9982489734077029e-02  3.0666907217100595e-02  2.5848702199712786e-02  2.4940958661723779e-02  2.3991533441247787e-02  3.0644364656806842e-02  1.2921605664439906e-01  1.3221368530716190e-01  2.2385177214511442e-02  2.2778489481661991e-03  2.8814689490009593e-02  1.0071311844966352e-02  3.1944011355519296e-02  2.8178333710763694e-02  3.5930394651807446e-02  2.2938254680602375e-02  1.4988418352585796e-02  6.0205537370727237e-03  4.9761716567415636e-03  3.3438192522672668e-02  6.9787318983172645e-03  2.6855977966950308e-02  3.1163925600207445e-02  1.2686360486816586e-01  1.3662908137468990e-01  3.0285488214896197e-02  2.5121717880420120e-02  1.0324952890603499e-03  2.9622110058063903e-03  3.5712580462470847e-02  3.1347454387039786e-02  2.3135574893970209e-02  2.0970302747782620e-02  1.2999404717116837e-02  3.2458597401535130e-02  1.3020177510714116e-02  3.5580184161629426e-02  2.2987484554402797e-02  9.9553391885148930e-04  1.2942555888074148e-01  9.9461853901347569e-02  1.3172768567761303e-01  1.2277631584851999e-01  1.4482461431680677e-01  1.4104493920682326e-01  1.3288629581250341e-01  1.3949078303809226e-01  3.6381817023580343e-02  3.6203132942632693e-02  8.0231377171241985e-02  4.0157220792705589e-02  2.8337365899722043e-02  2.9263131196257345e-02  3.4187349499641216e-02  1.7068296828359284e-02  6.9884600157753213e-03  2.7162738331842413e-02  3.5405615945656284e-02  5.0046815742127168e-03  6.9704769856916184e-03  3.6617024589843651e-02  1.4046569787290802e-02  1.1929224473340962e-01  9.3327967620774888e-02  8.4925687315376155e-02  3.1827041732718220e-02  5.5112170983105729e-03  1.5019439251000613e-01  2.2200051835769816e-02  3.0057495107244380e-02  3.8050284200587731e-02  5.1311045912235863e-02  1.2111336040452839e-01  2.5202608021161418e-02  2.5814223825822127e-02  1.1213199661177627e-01  2.9824409716380437e-02  1.9259952261734561e-02  2.0541328895136626e-02  8.5132069640441142e-03  2.2074348262069967e-02  2.2467443454539840e-02  1.4520522858716110e-02  8.9513139668479982e-03  3.0049108635814725e-02  1.4371284529980963e-02  1.0811883515000734e-02  1.5487793637464470e-02  2.5825204743011622e-02  7.9814621114082870e-03  2.0509480016300652e-02  1.7544847280487434e-02  4.0332185024505437e-03  3.2847456078969961e-03  1.3216162372538573e-01  9.0173798320842408e-02  3.8401734484344523e-02  3.6103740956345512e-02  2.4382355982918692e-02  2.7668577133801105e-02  8.0231973135309019e-03  8.3159589362493229e-03  3.3145754849278350e-03  3.2700311406474801e-02  4.6647126270000132e-03  1.1521442355173240e-02  1.3221006703523647e-01  1.0656393885195226e-02  1.4629583938941518e-02  1.0402882652391709e-02  6.9599852265513594e-03  1.3737868460855623e-01  9.2218300633766014e-04  3.8549307140699804e-02  1.8371504700401206e-02  1.1105975356345361e-01  -1.7900068612736694e-03  1.8036713117150563e-02  1.6263089946584951e-02  8.5103587852024161e-03  1.4989366006488478e-01  1.8510330310385101e-02  3.0329416584969092e-02  1.7582933288366506e-02  3.7945194434573164e-02  1.3176487416634089e-01  1.3245736444231931e-01  1.9431772966102514e-02  2.5040552387025457e-02  1.3831454492690703e-01  1.3796125627683550e-01  9.5126995117748546e-03  3.8711049688082283e-02  7.5345136820031220e-03  2.8342781041028858e-02  3.3336016655996538e-02  1.8548510239607126e-02  1.1324154052178044e-02  2.9044855389075197e-02  1.3188637916053562e-02  1.4344088600747476e-01  1.3220473689157192e-01  3.0896027911181633e-02  2.7379842059576560e-02  2.8432322143398990e-02  2.9816056492138001e-02  1.5651015581798187e-02  2.1162341284534272e-02  2.5638789732890729e-02  1.1836530256197058e-02  1.0587966342715536e-02  3.1037847920255173e-03  2.0509940484234306e-02  6.5729160075559999e-03  1.8225422028968297e-01  1.3782226171502640e-01  1.9229426027803965e-02  8.7743458221350105e-03  3.2378721104710628e-02  1.2826894522607715e-01  2.6363039193046896e-02  1.8965715360694177e-02  1.3418864245241599e-01  1.0861816610202010e-01  6.3975270237830841e-03  1.3534042918121400e-01  1.1972703096836840e-01  2.4818545597352422e-02  2.3510138224446774e-02  3.9547062060920304e-02  7.1701036665691206e-02  2.7604825550132970e-02  1.0498927778197642e-02  3.6854401479895278e-02  2.9204878876779514e-03  1.4139110693984339e-01  1.0850422079386784e-02  2.8391451777344118e-02  1.6627633643258959e-02  9.3573270895804753e-03  1.2192158003086618e-10  1.1851785589045320e-01  3.7668632209148352e-02  3.8928338011961335e-02  3.4845720724853861e-02  3.5915044664244763e-02  1.6066670936079171e-02  1.3577107762355539e-01  1.3950997400007828e-01  1.0354120281770836e-03  3.9528566439214303e-03  1.1522273997864556e-01  1.1495657311405834e-01  1.5796601066060020e-01  8.8521764820401940e-03  2.3523516206579203e-02  2.1805535415373081e-02  2.1169997936249605e-02  2.0566548167729008e-02  2.2200609886378630e-02  9.6074807567658096e-03  3.2416738494403317e-02  1.3583862412056658e-01  2.3917444913928391e-02  2.2729437561518680e-02  3.9282674814824406e-02  6.8053586628582741e-02  1.1740144602074119e-01  1.0526933151932873e-01  9.4407113412056549e-03  1.3443206377148878e-01  3.8843795833648637e-02  3.1643784655461041e-02  2.5327413674887805e-02  3.2782332245182857e-02  3.1565561056556779e-02  3.1182118504673329e-02  7.1724452148045371e-11  1.4224902679174686e-01  1.1552917386875541e-01  2.7549327016015656e-02  2.6794967500787133e-02  3.9369143152332517e-02  2.6671064146570028e-02  1.3691000580341272e-02  1.3312658594458146e-01  1.2687585136783022e-01  4.1834350013994735e-02  3.1368090011230816e-02  8.5650676352695770e-02  3.4728537737642305e-02  5.5963283367550165e-03  2.0972426146159510e-02  1.6324858460068415e-02  5.6027241573704895e-02  4.3559614951624415e-02  3.4599994960002677e-02  1.2505658102796868e-02  1.8423483213717226e-03  2.0313003893629496e-03  8.4628561139042007e-04  1.0190074419134218e-01  9.8539326998527896e-02  9.5444232647555229e-03  6.1873670263111148e-03  2.1370338633795477e-02  3.6236812251351745e-02  2.6382222429722185e-02  1.3516262763113731e-02  1.2411423521115269e-02  1.3793321728337832e-01  1.7704276851553121e-02  2.9780018113023721e-02  3.1369746884544254e-02  1.4022091297511924e-01  2.5136864499493913e-02  1.1649726483589226e-01  3.8699056400474274e-02  1.3404315122440966e-01  2.8447504949686647e-02  2.6746771253615079e-02  4.0034482042679488e-02  1.1666199337670237e-01  4.0452097089156612e-02  3.5821964021574934e-02  1.2192158003086618e-10  3.4360934012423530e-02  3.5399062886554533e-02  1.8167347566615755e-02  1.7267842736942141e-02  1.1545524923249817e-01  1.1209754157786364e-01  8.1467493586783561e-03  3.5429320269465485e-02  7.5456835537254970e-03  3.2134344253528717e-03  1.9547203297942895e-02  1.8504718435004546e-02  1.8192425211539832e-02  9.6770875633083508e-02  2.4753471541460285e-02  3.2704320341603532e-02  2.9394522904063181e-02  1.6955549522737909e-02  3.2476207351510258e-02  3.1649296448670337e-02  3.2990740301434306e-02  1.1178141683241211e-02  1.2246991064535636e-02  8.0830030082926739e-03  7.6822971780590990e-03  1.3334268655012591e-01  1.3378397290556959e-01  1.3766065430539539e-02  1.4473785097165118e-01  1.2610040915367762e-01  1.2840177907002022e-02  3.6272441889906387e-02  3.5486922482279047e-02  3.6152690484114736e-02  2.9230953498460849e-02  3.8138381191578447e-02  2.2384990295770828e-02  1.0237846978333748e-01  9.3941024463775231e-03  2.7204934920027238e-02  3.3310482004922412e-02  1.0171239949886728e-01  3.0422350750896270e-02  1.4840390109669352e-02  2.8683706061128144e-02  1.3576769918886866e-01  1.2180958338778458e-01  1.7619416281284529e-02  3.7498605343194706e-02  2.4743764975435813e-02  1.7415709991156072e-02  2.3803858096430704e-02  1.3885394861337028e-01  1.3101427935010101e-02  1.1990860539220681e-01  1.9402393938861538e-02  9.9617296029908792e-02  1.9787432546045222e-03  1.1721513270709817e-02  1.4820827199698820e-02  1.3309591859008763e-01  2.5670908340524618e-02  2.1477456638808144e-02  2.1280199599822240e-02  2.0564938923803060e-02  1.3591328914647915e-01  4.0474028283546001e-02  3.5124077247990979e-02  6.6479886383