<?xml version="1.0"?>
<VTKFile type="UnstructuredGrid"  version="0.1"  >
<UnstructuredGrid>
<Piece  NumberOfPoints="1404" NumberOfCells="2604">
<Points>
<DataArray  type="Float64"  NumberOfComponents="3"  format="ascii">0 0.41 0  0 0 0  2.2 0 0  2.2 0.41 0  0.2353553390593274 0.2353553390593274 0  0.25 0.2 0  0.2353553390593274 0.1646446609406726 0  0.2 0.15 0  0.1646446609406726 0.1646446609406726 0  0.15 0.2 0  0.1646446609406726 0.2353553390593274 0  0.2 0.25 0  0.6923879532511287 0.188268343236509 0  0.7 0.15 0  0.6923879532511287 0.1117316567634909 0  0.6707106781186547 0.07928932188134523 0  0.6382683432365089 0.05761204674887133 0  0.6 0.04999999999999999 0  0.5617316567634909 0.05761204674887134 0  0.5292893218813453 0.07928932188134524 0  0.5076120467488713 0.111731656763491 0  0.5 0.15 0  0.5076120467488713 0.188268343236509 0  0.5292893218813453 0.2207106781186547 0  0.561731656763491 0.2423879532511287 0  0.6 0.25 0  0.6382683432365089 0.2423879532511287 0  0.6707106781186547 0.2207106781186547 0  1.1 0 0  0 0.205 0  1.1 0.41 0  0.55 0 0  0.55 0.41 0  0.275 0 0  0.8250000000000001 0 0  0.275 0.41 0  0.8250000000000001 0.41 0  0.6875 0 0  0.61875 0 0  1.65 0.41 0  1.65 0 0  1.375 0 0  1.375 0.41 0  1.925 0 0  1.925 0.41 0  1.5125 0.205 0  1.7875 0.205 0  0.9625000000000001 0.205 0  1.2375 0.205 0  2.2 0.205 0  1.99375 0.2152743902439024 0  0.4125 0.41 0  2.0625 0 0  2.0625 0.41 0  2.2 0.3075 0  1.7875 0.41 0  1.375 0.1486128048780488 0  1.5125 0 0  1.7875 0 0  1.5125 0.41 0  0.9625000000000001 0.41 0  0.4125 0 0  0.1375 0 0  0.1375 0.41 0  0.6875 0.41 0  0.9625000000000001 0 0  1.2375 0 0  1.1 0.1486128048780488 0  1.2375 0.41 0  1.65 0.1486128048780487 0  0.823495464168302 0.2603780552348366 0  0.3738707794507017 0.2720196349488618 0  0.3662291281331582 0.1311456406657909 0  1.676715909090909 0.2793064024390244 0  1.126715909090909 0.2793064024390244 0  1.348284090909091 0.2793064024390244 0  0.8287581077665108 0.1302150898054257 0  1.894702181800738 0.1282910975492754 0  2.092797818199262 0.1282910975492754 0  1.85625 0.3075 0  0 0.3075 0  0 0.1025 0  2.099172119769978 0.25625 0  0.4752414543992246 0.3180372603390748 0  1.99375 0.08395950269330846 0  1.459960956013612 0.3075 0  1.569025960719943 0.2986889805672169 0  1.03125 0.3278689922742084 0  1.959375 0.3126371951219512 0  1.749222215368287 0.1025 0  1.275777784631713 0.1025 0  0.9228016959331474 0.3075 0  1.000777784631713 0.1025 0  2.2 0.1025 0  1.225938124459196 0.3075 0  1.550777784631713 0.1025 0  1.44375 0.07430640243902442 0  1.16875 0.07430640243902439 0  0.7562500000000001 0.3358727844323386 0  0.89375 0 0  1.899250267340833 0.2229966846119207 0  0.61875 0.41 0  1.766482954545455 0.2934032012195123 0  1.046078563095834 0.2389031808701145 0  1.421109702350723 0.2261157654379721 0  0.07567171807980319 0.25625 0  0.2511897295290552 0.3235829392832554 0  0.07655002503762308 0.1488653460959645 0  0.1377245246847496 0.3206030474919778 0  0.6694099692696568 0.3242771941727899 0  0.9168971191497528 0.1295727156104653 0  0.7562500000000001 0 0  2.118919042110979 0.3422084711244843 0  2.13125 0 0  0.06875000000000001 0 0  1.30625 0.41 0  1.597888256393107 0.2173787389261347 0  0.34375 0.41 0  0.2493272016354703 0.08091360081773515 0  0.5588896233436766 0.3264056208677571 0  1.829299675393195 0.07400700849299596 0  0.1334079128307869 0.08523463035786674 0  1.71875 0.41 0  0.06875000000000001 0.41 0  1.16875 0.41 0  2.038220665644273 0.332420740103091 0  0.8810647413215221 0.2027360103977071 0  0.34375 0 0  0.7453891198966415 0.2471459041008237 0  0.42112093004955 0.1988123139090554 0  0.8314023090855964 0.3351170841770613 0  0.89375 0.41 0  0.7906250000000001 0.06615386481594063 0  1.452769549894695 0.1548122580621249 0  1.369219062229598 0.07430640243902442 0  1.30625 0 0  1.07420695807087 0.07430640243902439 0  1.720943423819132 0.1714577452753128 0  1.157188124459196 0.205 0  1.304056576180868 0.1714577452753128 0  1.67579304192913 0.07430640243902437 0  1.209670467133757 0.136210026696477 0  0.4312800784902823 0.08036147352247747 0  0.8723959680194693 0.07066860609690805 0  1.025335513626278 0.1700681449722324 0  0.7945632284247136 0.1940204203251442 0  0.378125 0.3452261501101892 0  0.3307109909790086 0.2037165635083759 0  0.3009701032039409 0.2702970083403109 0  0.20625 0.41 0  1.58125 0 0  0.4812500000000001 0 0  0.9838963872396855 0.2722244191167347 0  0.06772484939107212 0.3260067317374387 0  0.20625 0 0  1.58125 0.41 0  1.631724228912893 0.3381867502687533 0  1.825608881788174 0.14499488549201 0  1.85625 0 0  1.44375 0 0  1.44375 0.41 0  1.85625 0.41 0  2.13125 0.41 0  0.7562500000000001 0.41 0  0.4812500000000001 0.41 0  1.16875 0 0  1.03125 0.41 0  1.03125 0 0  1.71875 0 0  1.99375 0 0  1.99375 0.41 0  0.9408708167433545 0.0651989315768642 0  1.340625 0.3489494290853124 0  1.134375 0.3489494290853123 0  1.700180620188976 0.3438659752031281 0  0.29668452290037 0.1318471691375986 0  0.3175441051360096 0.06496934809856265 0  0.06509151636162461 0.08140814015999148 0  2.135782184673599 0.07126652247502523 0  1.668441847249787 0.2129203728327609 0  1.295782514339747 0.2378437748815763 0  1.409375 0.3520314716057996 0  2.129248544730567 0.1906135162504124 0  2.060771381434487 0.1989445750470348 0  2.013252586573865 0.1496169464686054 0  1.942766402200229 0.1734448904596831 0  1.895522487186454 0.06076163953489683 0  2.069553871656643 0.06605731020975725 0  0.4670911801404742 0.2498408582391372 0  0.7622743084658112 0.1264100838268133 0  1.274680914880868 0.3520219391081363 0  0.3148669572599245 0.3331753056385887 0  1.614713220494657 0.09473434380863296 0  1.72990325744076 0.2380068107952482 0  1.356580098625191 0.2120393231351682 0  2.034370752044885 0.2668681600792073 0  1.51768709249349 0.3426260931494756 0  1.561883724969884 0.1650446847858835 0  1.197344062229598 0.2523725417393646 0  1.804085235518364 0.3468178408964637 0  1.817887819205233 0.2589243285818559 0  1.905897727272727 0.3485060975609756 0  0.7296439733931823 0.06337466644369745 0  0.4250935971865949 0.1394919578475796 0  0.3773030136511669 0.05130372097998036 0  1.192836486056382 0.3562350748565544 0  1.1029124365364 0.226143510831178 0  1.28257088594801 0.2944411014911587 0  0.1905185804731426 0.06029880676029167 0  1.474860187679412 0.2504218616229368 0  1.406767003493824 0.2829282258560709 0  0.5209826960981064 0.2830664557824064 0  0.5131119502780163 0.3617405848213254 0  0.1948220106098172 0.3081993407644811 0  1.845656689180403 0.1998310418452388 0  2.144958525570388 0.2909790873294231 0  2.2 0.15375 0  0.8833025251326762 0.2625402923007629 0  0.171875 0.3653875762360952 0  1.57794966442982 0.3540357145964566 0  0.446875 0.366068291212731 0  0.4272051715206439 0.2891929346190664 0  1.508991196088596 0.1421783375065625 0  1.50436820029908 0.06143401634903343 0  1.223857000523521 0.08235548624535324 0  0.6137904613287555 0.3066826366281556 0  1.153316824384777 0.1289850171317838 0  0.9751573703656133 0.327632618473408 0  2.148922302309752 0.1258841779285271 0  0.9281250000000001 0.3643758685795699 0  1.621993280276081 0.2841214267927899 0  1.550118654119087 0.2461998729100966 0  1.327182649291491 0.1216967252533594 0  0.9939955742738924 0.04663549843168518 0  1.753125 0.04556020050186112 0  1.271875 0.04556020050186116 0  0.9734326767716519 0.1506854560854393 0  0.103125 0.3675775577080512 0  1.94956388244759 0.1180512551534177 0  1.949997712993411 0.04965831614304109 0  0.717433898748555 0.295596016333797 0  1.771961817615021 0.1530278789497521 0  1.909246823951428 0.2812757146784527 0  0 0.35875 0  1.050632804931928 0.1226269704412814 0  0.05695108326502596 0.2024009637347154 0  1.948575539857022 0.2445328248721197 0  1.697271520964565 0.1233917627620729 0  1.065625 0.3689344961371042 0  1.085849084308977 0.3170853572226867 0  0.1015495998772944 0.04226029099983852 0  1.577403511714593 0.05463601888079143 0  1.751571320346033 0.3651102912045228 0  2.2 0.35875 0  0.7441773632462837 0.1786786606458751 0  0 0.05125 0  1.466879772203159 0.3611261772912453 0  0.6282230348858767 0.3577675483994025 0  1.990280163552011 0.3564754268533217 0  1.17471064520912 0.2990917256188288 0  0 0.25625 0  2.2 0.25625 0  2.2 0.05125 0  0 0.15375 0  1.853978576207987 0.35875 0  1.515638456102889 0.2882700110184686 0  2.150453692751374 0.2387066338105111 0  1.323782677156475 0.04897634338873398 0  1.409375 0.03715320121951221 0  1.406484531114799 0.1087852750766809 0  1.134375 0.03715320121951219 0  0.721875 0.3729363922161693 0  0.7941695928236929 0.3696489254637395 0  0.7934827162619036 0.3013409431456604 0  1.627401732573545 0.04552157221025036 0  0.9352049974617431 0.2507047965699472 0  0.8763260682738339 0.3611103317460093 0  2.045405893604797 0.1105340662939892 0  1.255408269734577 0.1577307500159216 0  2.028125 0.03707597992059326 0  1.003030137506755 0.3689344961371042 0  1.248258025468107 0.2565907092181813 0  1.203125 0.03661323374043041 0  0.4800125512335631 0.0549472816999725 0  2.072662025974815 0.2975086504196739 0  0.240625 0.3729825336867542 0  1.113252391110535 0.10238286244357 0  1.071052763974265 0.1885202618768825 0  0.8738809401657862 0.3106483608284829 0  0.6786819423003397 0.2677558482644021 0  1.887722846421017 0.1760882698830035 0  1.472640588990488 0.1118278026240017 0  0.5843750000000001 0.41 0  1.865937103925594 0.2604137786483804 0  1.463913572748262 0.2030442564990043 0  1.376426316059077 0.3186741374914345 0  0.1038643885363755 0.2162701735320032 0  0.1769473813227781 0.1070849728467114 0  0.458787839809176 0.171541653775316 0  0.240625 0 0  0.04179569703428024 0.2877217852556549 0  0.1258346557601885 0.2699740073054968 0  1.722140693354707 0.282908100935778 0  0.41206179117512 0.2448172567039922 0  0.3702471778075604 0.2265217604228704 0  0.3714881805374215 0.1786967818665642 0  1.77397096061971 0.2481483237422926 0  2.105123889160691 0.03743885948498647 0  1.001138337938679 0.229719337663998 0  1.051242910646791 0.2854826559431138 0  1.395420985247586 0.18
[...]
<PointData  Scalars="f_43"> 
<DataArray  type="Float64"  Name="f_43"  format="ascii">1.0843564475867602e-01  2.0484082197394446e-01  8.7493087045313734e-11  3.0595230959807699e-10  8.0921999489604698e-02  8.4107958859633694e-02  7.0623807594850943e-02  6.6967991122317036e-02  1.3744878233660152e-01  1.3880584529000398e-01  8.9646645467629696e-02  7.1606407207982420e-02  -4.2863028491512481e-03  -3.9617330623471112e-03  -8.1915833821557919e-03  -1.5230772146057250e-02  3.4717866666366913e-02  -6.8212579951494609e-03  -2.1440600937777610e-02  8.7125044980540897e-02  1.5893509088226093e-01  1.5249441079413265e-01  7.5271120368040442e-02  1.6192610301918261e-02  -1.9363242095629566e-02  -3.3649525453172860e-02  -2.4156652862397782e-02  -1.0518543434889996e-02  1.3446972062782460e-03  1.1855591364968621e-01  2.4815693564397305e-03  5.7480083088947372e-02  4.7967085543692646e-02  1.0173358348346132e-01  -1.9973884584400946e-03  9.3285347425835288e-02  1.6569290473086348e-03  -3.7766598857319890e-03  2.8752913414418530e-03  7.2649131420293731e-03  7.1720189474326424e-03  1.3805515898200076e-02  6.6281290412740683e-03  3.5702580909889826e-03  3.6396460676205791e-03  8.8803273485508899e-03  5.4082521331908955e-03  -2.9837085169665918e-03  7.2737484131757896e-03  1.7762354062056093e-10  2.7056822171157941e-03  8.0821001632997366e-02  1.7911853983533356e-03  1.8120155624146708e-03  2.6744243537518664e-10  5.4844079535147526e-03  1.1918171620388504e-02  9.6957903514427648e-03  5.3322380370365843e-03  8.3659294846792926e-03  2.6214421025673551e-03  1.0674280787105511e-01  1.1438608240133283e-01  1.0744172433461101e-01  8.7965916338957773e-03  -3.4829292354120306e-03  1.4201996349981280e-02  -4.8014910921367650e-03  2.1702398956098159e-03  7.1891455429315488e-03  2.1584476645554254e-03  9.1968956609464539e-02  1.0012180604376336e-01  6.9114734543955633e-03  1.8324214033036165e-03  6.1921899246056185e-03  -1.4008562948831857e-04  3.9734368864289800e-03  1.4013432790852616e-03  4.5477271086053674e-03  1.0920845000320531e-01  1.2902416322956839e-01  1.3227227367340730e-03  7.2341522025093905e-02  2.6865140487408309e-03  8.3884679180134172e-03  8.1284670670712447e-03  3.2694712587795819e-03  3.1748271041918403e-03  5.8408805620100727e-03  1.4363875388523878e-02  1.9360050651649583e-03  -5.0836335308145665e-03  2.1373616803272155e-10  1.7629283042680279e-03  8.7684666631537133e-03  1.1486853664238151e-02  6.6325793488307997e-03  2.3042623425305175e-03  -2.3452590202062296e-03  3.9489543569064109e-03  2.4200512641476705e-02  5.7436548701242426e-03  -3.6131715972866911e-03  9.0575551252134318e-03  1.1374635040750779e-01  9.0737772925509316e-02  1.2903862471084754e-01  1.0560009345854210e-01  2.6088666027636043e-03  -2.0943314519248279e-03  -3.5059253073123436e-03  1.0669520053402106e-03  8.9469286623450751e-04  1.2843996820069903e-01  4.2196394149466585e-03  7.8690228692429188e-03  8.7210007102563686e-02  9.5701980117708710e-02  3.4766136028024787e-02  4.8029919749693799e-03  1.2133914141863554e-01  6.3992153733306040e-03  1.0883106896533136e-01  1.8463004713371613e-03  2.1332428150382353e-03  1.2127004717361147e-03  1.0321677443729234e-01  -1.9284272071651031e-03  9.7185061896017208e-02  2.4410954044166463e-03  2.0803282472827232e-03  -9.4754782240682480e-04  1.0247371963280899e-02  1.3834035340737010e-02  1.5408982630935191e-02  -2.8808892128518570e-03  6.2545790673299581e-03  1.4019168032406678e-03  1.1443400926588783e-02  6.8125288611458664e-03  8.9537131887390629e-03  1.1724801530361217e-01  -1.2490697168059330e-03  -6.8240630477184039e-03  1.0112474170877038e-03  8.5664316504053512e-02  8.9489080531057807e-02  8.7894718881753181e-02  1.0136417691705563e-01  8.2800512885213631e-03  1.0658755520118053e-01  -7.9967847146341427e-04  1.0875501722427953e-01  1.0582343259899327e-01  7.9818014554222834e-03  7.4713015478254817e-03  4.8745474790418955e-03  4.4508091556808649e-03  1.1582599287976088e-02  8.0716491054332110e-03  4.5590403951978548e-03  9.0343100769342500e-04  2.8354931987718940e-03  6.8800205536607109e-02  8.6056940360507133e-03  2.8177604949571897e-03  -3.0618269491487107e-03  6.2241863675836194e-03  2.6837009614932390e-03  2.7226161208447680e-03  -2.7656227595547122e-03  5.2117501814414749e-03  2.6743804402194486e-03  6.6324788073137608e-03  8.8008270315683340e-02  1.0187926492113646e-01  1.2897957210895553e-01  8.3809916139559548e-04  6.9744564150259593e-03  6.3879490837722378e-03  7.4268534554771193e-03  9.2514691123698524e-04  1.8225178851425635e-03  2.4384562656151270e-03  3.3612851518111720e-03  3.9491720999861851e-03  1.7007980574419543e-03  8.1813654915283154e-02  -2.4739654196867539e-03  2.7584750680093770e-03  8.9581420351586727e-02  7.7001305156947650e-03  6.1912823796687862e-03  9.1365601044992792e-03  2.1785447597229566e-03  8.3694751660133258e-03  8.4205940126321020e-03  3.0582883854566234e-03  5.2575326753572316e-03  5.0389821207057510e-03  3.8927020083647963e-03  -2.6976345794231887e-03  1.1863410941199926e-01  1.0654972008000285e-01  1.8870440829978105e-03  -2.2768943120377427e-03  3.1966176534400192e-03  1.0678015159242220e-01  8.8078113587480023e-03  7.8696776757233820e-03  4.6503741286637645e-02  5.8740062086543900e-02  9.3047093081948529e-02  4.6411267303993059e-03  7.2166883359697852e-04  -1.9346096439925008e-10  1.6025352071737081e-03  1.0381435931751189e-01  8.0024837009911101e-03  7.5667032282222060e-02  8.7161025834304878e-02  9.3699893356999613e-03  9.8843859873907342e-03  1.2167495837535656e-02  8.1055456050884399e-04  2.0457752260524108e-03  2.8856096905602933e-03  6.6790175502818671e-04  3.0923350816742154e-03  7.5816226531988809e-03  8.3654842514850006e-03  1.3807104405386798e-02  -3.5321301180432012e-03  5.7788061147115172e-03  1.4952631802731398e-02  -4.6487024711056538e-03  1.0797915136956548e-01  3.2615121163233106e-03  3.2487976727654556e-03  -2.0847599307391978e-03  5.5755135334770358e-03  3.8342592631510275e-03  1.0827030031845540e-01  -6.3563682409009210e-03  1.2121647317509951e-01  3.3041279330401005e-03  6.5325541568562835e-03  3.2834114602775205e-03  2.9515138033459811e-03  1.2316290709749050e-01  8.3606159035193167e-03  5.9617374299912795e-03  3.0595230959807699e-10  -2.2061612632215308e-03  1.3774915626131998e-01  8.2313991818579926e-03  1.7895452450679691e-02  2.7683741219946645e-03  2.0254678882609197e-03  1.1263126816675154e-01  1.7762354062056093e-10  8.7493087045313734e-11  1.2426068936026467e-01  4.5884304584182653e-03  8.4986383802019231e-03  6.4995175876745724e-04  1.5023883148519395e-02  1.2720591836700153e-02  1.2205546563911499e-02  4.0360690244398865e-03  5.3055616679383447e-03  2.5848751868390155e-03  1.7233754616992941e-03  7.5280468429004309e-03  -4.5753906573721463e-04  2.6858109594581877e-03  2.0169931425782000e-03  1.1295135074483376e-02  2.2397768646885978e-03  3.4447998373005845e-03  3.8611390591903601e-03  1.1218087671963677e-02  1.0963913630615790e-01  1.6763319273175876e-03  9.6420069272807676e-02  -1.4934541346522674e-03  -6.1723643969704709e-03  2.2088359946311840e-03  -1.0010516601887974e-02  4.0804307621077332e-03  1.0390496241798164e-02  3.5575776387220766e-02  4.4027548570152114e-03  9.3666909963031047e-03  6.6597606356677943e-03  1.2417016366648265e-01  1.0779040365818209e-01  1.1703380776543629e-01  1.0284317340360302e-01  1.1044720830516647e-01  1.0668412460710829e-01  6.3243801919834414e-03  9.2493435623290404e-02  9.2584202492143469e-02  9.3637852658919024e-02  5.6173419892480312e-03  1.2368411260371527e-03  -3.8833964982616614e-03  7.7557159269432425e-04  1.0149229145711055e-02  2.2679700612430135e-03  8.3297202839525838e-02  7.8516187338066937e-03  1.2789073131606474e-01  1.3274587106380639e-01  1.3072228576643556e-03  -3.8882927269737980e-04  9.2903760250685155e-02  5.1385950765453874e-03  2.7553717895622627e-03  8.9968273342663094e-02  8.5085346812497270e-02  8.6452470779338625e-02  4.9196242041415008e-04  1.3585822850743601e-03  1.6409267531702107e-03  -2.1542048532883253e-03  -3.7228195920072315e-03  7.6500523258037729e-03  1.0732723690323270e-02  5.2755647671988443e-03  3.9726969244115520e-02  1.4121430409655392e-01  1.0814735353595928e-01  2.5550101243364057e-03  8.1400556964248416e-03  7.2733603086515538e-05  9.0021287941633332e-02  9.1952884052978856e-02  5.8598198738499651e-03  1.0569344824478582e-02  7.4466936677595455e-03  8.2361811269939852e-03  -3.0788375481567666e-03  6.6904957066974101e-03  6.3699988065753802e-03  5.2959926969801680e-04  5.3464463575637639e-04  1.3109530779238157e-01  1.3388621122899907e-01  1.0845973757008616e-01  1.1425250988402331e-01  -1.9976451760379097e-03  -1.1757032693140708e-03  7.4161205613412304e-03  5.2071421857491779e-03  4.3102490782219571e-03  8.9620235377094612e-02  8.2379717926014714e-02  1.0178691686154380e-01  8.9370984441869122e-03  3.3513936006322929e-03  2.3996025912731882e-03  1.3818034807016183e-01  -6.6117993282644458e-04  5.0227815242600568e-03  6.1587747167026101e-03  7.0878620111735078e-03  1.1005562899023091e-01  1.8734550806574356e-03  9.7689444156480051e-02  8.7623669050914274e-02  8.4190253168704102e-03  2.0466728430329965e-03  9.0448804295867519e-02  1.3856335360028405e-03  1.0888695601134514e-02  -4.5698217344423069e-04  1.0358161570140539e-01  7.9411747549645618e-03  -1.4035326491229645e-03  1.0855847729734422e-01  1.0206902651251930e-01  7.8006504522339884e-02  -2.9314667023137594e-03  -2.0784831596819694e-03  9.7038269603975979e-04  -9.5712588825112637e-04  5.1179696715727995e-04  1.2855583162415840e-01  4.4693203880066422e-03  8.0691168677879496e-02  9.6924361175788676e-02  1.0334431188419966e-03  -3.6350238620576811e-03  2.7429323058773070e-03  5.4416294089373970e-02  4.0980638081254120e-03  9.7225678256917469e-02  4.4377327800311532e-03  4.0102523888678725e-03  3.5275880678018079e-03  8.8144505004534635e-02  9.5782900015171767e-03  -8.7304138998074059e-04  6.3131741279190612e-03  -4.7877167485102191e-03  1.2638731240408225e-04  6.9599948138416015e-03  7.1359229087264607e-03  8.6468736382820335e-02  1.1583703659140548e-01  2.1499028319640775e-03  1.1147203055288086e-02  8.8454264838447663e-02  2.7992658714652320e-03  1.2487596860594698e-01  5.4556124738826270e-03  -3.5759316047499534e-04  -3.5994673297345746e-03  2.4454606364722201e-02  9.4134680430673356e-03  -9.7800520513074193e-03  2.1806768005608436e-03  8.5189591683172694e-03  8.6470429511276876e-03  1.0863998349162068e-01  2.1197981029739974e-03  2.4095059188096232e-03  3.2346416668063895e-03  -2.6979607487893106e-04  9.3357697217996832e-03  -1.5140238598529811e-03  -1.4788366287224674e-03  -2.4631995401179327e-03  -9.1995439095460090e-04  5.9319494172602313e-03  8.8285332024583534e-03  6.0766166816674638e-03  1.3386864853773802e-02  1.3192022424463245e-02  1.4234476806393139e-02  6.7058955996878210e-03  1.2145633932338655e-02  2.9535884294765993e-03  8.4220988622207948e-02  1.2427549686354315e-02  8.3488611702362461e-03  7.7976752802522021e-03  7.0399055089956277e-03  -8.6702090714655029e-04  -1.9460180879160688e-03  7.5101755878607436e-03  7.9292160863197337e-03  8.2832603040803206e-03  8.1318812284527434e-02  8.4272997682044923e-02  1.7644188224356543e-03  4.8916109453244578e-03  8.8569610633972132e-02  1.7988337467331908e-03  2.2685600869039729e-03  1.4906651253203807e-02  1.2003942446365500e-03  3.4721832130031210e-03  -7.6274931245901381e-04  1.0870945959328244e-03  4.8125901389961507e-04  5.6844870312680405e-03  8.9947265868023738e-03  -5.9911319193696813e-03  -6.4162818645555758e-03  -5.1551973687790657e-03  -1.6506250911523363e-03  1.3307485818472803e-01  1.0959110971090069e-01  1.2628223710015977e-02  3.1830637901991755e-03  1.0410649548119917e-01  -4.7433781006000000e-03  4.5950418471989369e-04  1.0448886432854699e-03  3.1851969805123778e-03  1.2031526524878926e-03  4.8336083951160116e-03  4.4432472187747743e-03  5.1938745658692701e-03  -2.4111734114624396e-03  2.7938299614675127e-03  -6.5373647693421546e-03  2.0554470065721701e-02  -3.7697062441283467e-03  4.4221412393899987e-04  -1.5549194443994017e-03  2.1965677718267297e-03  2.1368245316845326e-03  4.0638316549494805e-03  5.4853704783191584e-03  6.4484578551839734e-03  2.4922934599284014e-03  9.4885665515666920e-02  1.0428693733955932e-01  9.9642657000226873e-03  1.0221406167797368e-03  1.7890580043601499e-03  4.5132740380615516e-03  -4.1901407216789711e-03  1.3714144916246236e-02  -2.1827873150197558e-03  7.6355261766028765e-03  6.8391047004694909e-03  2.7049293037842430e-03  2.2376976025048185e-03  -7.0562071686489985e-03  3.1578316314822873e-03  3.0127841637910767e-03  2.6721826998552314e-03  1.0053593780349594e-01  1.0660283957679947e-01  7.8506345750445905e-03  1.4812928848655871e-02  4.4939668366011579e-04  1.3401826379342513e-03  4.9014366458299862e-03  4.8070502027726444e-03  1.2684660705925518e-02  8.3312455149658141e-03  5.9455538836959239e-03  2.7194614130060090e-03  5.7743455496100911e-03  2.3736765804092661e-03  7.5076706500502490e-03  4.5432728552256661e-04  1.0775732752280724e-01  7.5987114967766181e-02  1.0498572826848097e-01  9.7178677412061112e-02  1.1834208553628910e-01  1.0866359075641559e-01  1.0508700227404548e-01  1.0862207802632123e-01  1.7907389424087305e-03  1.9159988595697920e-03  5.9567964638726816e-02  1.4987227452417302e-02  1.8691028085333428e-03  1.1925601562233872e-02  2.7728072110542526e-03  7.7008654702120033e-03  3.1275177059888136e-03  1.5341173693961666e-02  -3.6373596460002101e-03  2.2389186810045356e-03  3.1780616167038961e-03  -2.8975698092014628e-03  6.4092810937693978e-03  9.1929423031620980e-02  7.1936967657436873e-02  5.0410170220199724e-02  9.0920706944136725e-04  2.4687376029740747e-03  1.2567205358310676e-01  1.1096794109611122e-02  3.5002181255261097e-03  2.3530395429244189e-03  2.9187829631687735e-02  9.0638520328984951e-02  7.0689704255043340e-03  4.9484563582518435e-03  8.2225279606178800e-02  2.1015300495760480e-03  8.3404960998638231e-03  8.4733792082436650e-03  3.7902342568535011e-03  8.0515404462524077e-03  7.7182757306678033e-03  6.5789569670917057e-03  4.0671204183283065e-03  2.1700005309940843e-03  6.4720272273456588e-03  4.8180385787353116e-03  6.9996147563127489e-03  9.0499676829851553e-03  3.6183908682589218e-03  8.3281910379557865e-03  8.0013892902362840e-03  1.8049128631989772e-03  1.4720347230848651e-03  1.0165836653697614e-01  6.8105003068352821e-02  -4.0786702643959315e-04  -1.4977070045855407e-03  1.0776099916283453e-02  1.9413184485682954e-03  3.6106385436110015e-03  3.7263820446827686e-03  1.5000322780694627e-03  -4.9375484384194821e-03  2.1108883089947668e-03  5.2525987173807701e-03  1.0299707670059016e-01  4.8531062742911534e-03  6.6586613105022209e-03  4.6983285476160210e-03  3.1069215339922063e-03  1.0765368292520150e-01  4.1590282561624264e-04  9.0924735706528258e-04  8.3767266275043707e-03  8.4837133030020426e-02  -2.1048772300533897e-02  8.2487049854777800e-03  7.2873561722607916e-03  3.8680689897638496e-03  1.2809531420068102e-01  8.0947301365063163e-03  -2.7777454929429064e-03  7.8296841579565315e-03  7.0592622573744279e-04  1.0700887335333248e-01  1.1369761673199534e-01  8.7802777012917135e-03  1.4267309590930404e-02  1.3208891881522145e-01  1.0819397343675904e-01  4.3284842076967223e-03  2.0143742339878631e-03  3.4228631878552166e-03  8.7707645466391700e-03  3.3178132598399679e-03  8.6219641873640750e-03  5.1122421205653861e-03  1.7540514077679376e-03  5.9842213671385284e-03  1.1324498477176355e-01  1.0027711331135283e-01  2.6177430880192890e-03  6.2492176655506958e-03  2.5252767856199852e-03  2.7617057879099054e-03  7.0310968399648899e-03  1.0619485989175080e-02  9.6523938627607764e-03  5.3755079595095940e-03  4.8056044129598328e-03  1.3971894299090095e-03  1.0089229894324155e-02  2.9799655417199339e-03  1.5820303164719435e-01  1.0834476800701665e-01  8.8372603671672961e-03  3.9144950713834378e-03  -6.0052863614606031e-03  1.0181115393353511e-01  3.2181949933520154e-03  8.2332317703076481e-03  1.0986260327880237e-01  8.3933492615085536e-02  2.8639015616849705e-03  1.1032424095058978e-01  8.9299678103292188e-02  5.4547360794593332e-03  -9.6191466305105364e-03  1.5433245013284035e-02  5.1058991763158784e-02  1.4238850223016597e-02  4.7896857066689648e-03  -3.2219240243133418e-03  1.3061692585093414e-03  1.2095406944492729e-01  4.8228155764780643e-03  4.4264636401540221e-03  7.4715674751711196e-03  4.2445413149386421e-03  1.7762354062056093e-10  9.0636101500455785e-02  1.6325676389518132e-03  1.8789161235338487e-03  -3.2478950459455015e-03  2.9127092961627118e-03  7.2620943704304114e-03  1.1014353129445457e-01  1.2511928412661347e-01  4.6238158443845042e-04  1.7855260396143597e-03  8.6311156592779173e-02  9.9524742937276284e-02  1.2242717403037345e-01  4.0027603021903953e-03  9.1738741925457296e-03  9.0235143622364195e-03  8.5821599066393268e-03  8.8923399077410325e-03  1.1761700029167684e-02  4.3673054627322598e-03  1.5332388262803906e-03  1.1407679045659666e-01  7.2488920515909700e-03  8.4735460764272796e-03  2.2395992456401615e-03  4.7242195933611432e-02  9.0862796162432438e-02  8.2686207120622718e-02  4.2480666408206413e-03  1.1253697793394996e-01  1.5433531492396305e-02  7.1192265485889965e-03  -4.0870213640532794e-03  -3.5439115938175236e-03  1.4228104669689119e-04  -8.3202804155577614e-04  2.1373616803272155e-10  1.3443604647755722e-01  8.8125161625321705e-02  2.4859206106736891e-03  4.2313390220501687e-03  7.6679555059137948e-04  3.1851071884008274e-03  6.0829071332317124e-03  1.0286151009314461e-01  9.3703802535504310e-02  1.6913942680719562e-02  2.9274820708373255e-03  6.4483180575846122e-02  -3.9822548287607685e-03  2.5374358099047559e-03  9.8433220373214184e-03  7.3831863536406540e-03  3.1586442598191676e-02  8.0933425502174583e-03  5.3308741476720146e-03  5.7135838264419127e-03  8.3279196331438414e-04  9.1577290216677122e-04  3.8181229692629137e-04  8.0647994745486437e-02  5.4047756710438356e-02  4.3079392610265591e-03  2.8075392183801611e-03  -5.0109487569324337e-03  2.6506350578551141e-03  1.5233707491038364e-02  6.0026390127650309e-03  5.5042359775425544e-03  1.1690553425940071e-01  8.0348311168274740e-03  5.7213939827231164e-03  -1.7209696363122931e-03  1.0842768077020987e-01  1.0258286662957783e-02  8.4142919509298239e-02  -2.9767327000553402e-03  1.0352776303696155e-01  1.7287851712282365e-03  1.5021854947624888e-02  2.1724566860527477e-03  8.9710072642578187e-02  -6.5624592177614951e-04  -3.3912527903660929e-03  1.7762354062056093e-10  3.1907258730111535e-03  1.2865966272756991e-03  8.0474682479848153e-03  7.7313047437707590e-03  9.0758142616580356e-02  8.8553793840564249e-02  3.6394531552506370e-03  6.7763931917027057e-04  3.3799402582965522e-03  1.4470858952282393e-03  8.6146933003714097e-03  8.1906562835984478e-03  8.1189975485690107e-03  7.4367658368950151e-02  5.5745509422425550e-03  -2.1809390064217427e-03  9.8172436256214624e-03  7.6277958237589089e-03  3.4268991862237298e-03  2.3550094127911393e-03  2.8720728471800269e-03  5.0278604862175206e-03  5.5910507635890403e-03  3.5964445311080602e-03  3.4342285065863064e-03  1.0077330436222592e-01  1.1057976295571523e-01  6.2784807728182811e-03  1.1749140561293010e-01  1.0631552693866540e-01  5.7261014140516774e-03  -3.7173689177189316e-03  -5.3363564144365714e-03  -3.2160880208526974e-03  1.9555512003282191e-03  -1.4694570268762265e-03  8.1343239664805177e-03  7.8063773063876574e-02  4.2052286802747975e-03  2.3091913651719499e-03  -2.0077277744292880e-03  8.1657572075632595e-02  -2.5548655434171329e-04  6.6997873844879758e-03  1.0877403027517720e-02  1.1968099711883221e-01  1.0838970369414137e-01  7.8810983064403293e-03  7.6026705401669315e-04  1.2924264109636182e-02  7.9130472510076395e-03  1.3483439361502793e-02  1.0828331740761372e-01  5.8728532852133850e-03  9.3281092318077283e-02  8.4515377458516897e-03  7.0239736853198162e-02  8.8914215271750281e-04  5.2360315496004896e-03  6.7516843905022867e-03  1.0779797071318098e-01  4.1887025457670798e-03  8.1641480939294419e-03  8.3313812437426221e-03  8.35788