<?xml version="1.0"?>
<VTKFile type="UnstructuredGrid"  version="0.1"  >
<UnstructuredGrid>
<Piece  NumberOfPoints="1404" NumberOfCells="2604">
<Points>
<DataArray  type="Float64"  NumberOfComponents="3"  format="ascii">0 0.41 0  0 0 0  2.2 0 0  2.2 0.41 0  0.2353553390593274 0.2353553390593274 0  0.25 0.2 0  0.2353553390593274 0.1646446609406726 0  0.2 0.15 0  0.1646446609406726 0.1646446609406726 0  0.15 0.2 0  0.1646446609406726 0.2353553390593274 0  0.2 0.25 0  0.6923879532511287 0.188268343236509 0  0.7 0.15 0  0.6923879532511287 0.1117316567634909 0  0.6707106781186547 0.07928932188134523 0  0.6382683432365089 0.05761204674887133 0  0.6 0.04999999999999999 0  0.5617316567634909 0.05761204674887134 0  0.5292893218813453 0.07928932188134524 0  0.5076120467488713 0.111731656763491 0  0.5 0.15 0  0.5076120467488713 0.188268343236509 0  0.5292893218813453 0.2207106781186547 0  0.561731656763491 0.2423879532511287 0  0.6 0.25 0  0.6382683432365089 0.2423879532511287 0  0.6707106781186547 0.2207106781186547 0  1.1 0 0  0 0.205 0  1.1 0.41 0  0.55 0 0  0.55 0.41 0  0.275 0 0  0.8250000000000001 0 0  0.275 0.41 0  0.8250000000000001 0.41 0  0.6875 0 0  0.61875 0 0  1.65 0.41 0  1.65 0 0  1.375 0 0  1.375 0.41 0  1.925 0 0  1.925 0.41 0  1.5125 0.205 0  1.7875 0.205 0  0.9625000000000001 0.205 0  1.2375 0.205 0  2.2 0.205 0  1.99375 0.2152743902439024 0  0.4125 0.41 0  2.0625 0 0  2.0625 0.41 0  2.2 0.3075 0  1.7875 0.41 0  1.375 0.1486128048780488 0  1.5125 0 0  1.7875 0 0  1.5125 0.41 0  0.9625000000000001 0.41 0  0.4125 0 0  0.1375 0 0  0.1375 0.41 0  0.6875 0.41 0  0.9625000000000001 0 0  1.2375 0 0  1.1 0.1486128048780488 0  1.2375 0.41 0  1.65 0.1486128048780487 0  0.823495464168302 0.2603780552348366 0  0.3738707794507017 0.2720196349488618 0  0.3662291281331582 0.1311456406657909 0  1.676715909090909 0.2793064024390244 0  1.126715909090909 0.2793064024390244 0  1.348284090909091 0.2793064024390244 0  0.8287581077665108 0.1302150898054257 0  1.894702181800738 0.1282910975492754 0  2.092797818199262 0.1282910975492754 0  1.85625 0.3075 0  0 0.3075 0  0 0.1025 0  2.099172119769978 0.25625 0  0.4752414543992246 0.3180372603390748 0  1.99375 0.08395950269330846 0  1.459960956013612 0.3075 0  1.569025960719943 0.2986889805672169 0  1.03125 0.3278689922742084 0  1.959375 0.3126371951219512 0  1.749222215368287 0.1025 0  1.275777784631713 0.1025 0  0.9228016959331474 0.3075 0  1.000777784631713 0.1025 0  2.2 0.1025 0  1.225938124459196 0.3075 0  1.550777784631713 0.1025 0  1.44375 0.07430640243902442 0  1.16875 0.07430640243902439 0  0.7562500000000001 0.3358727844323386 0  0.89375 0 0  1.899250267340833 0.2229966846119207 0  0.61875 0.41 0  1.766482954545455 0.2934032012195123 0  1.046078563095834 0.2389031808701145 0  1.421109702350723 0.2261157654379721 0  0.07567171807980319 0.25625 0  0.2511897295290552 0.3235829392832554 0  0.07655002503762308 0.1488653460959645 0  0.1377245246847496 0.3206030474919778 0  0.6694099692696568 0.3242771941727899 0  0.9168971191497528 0.1295727156104653 0  0.7562500000000001 0 0  2.118919042110979 0.3422084711244843 0  2.13125 0 0  0.06875000000000001 0 0  1.30625 0.41 0  1.597888256393107 0.2173787389261347 0  0.34375 0.41 0  0.2493272016354703 0.08091360081773515 0  0.5588896233436766 0.3264056208677571 0  1.829299675393195 0.07400700849299596 0  0.1334079128307869 0.08523463035786674 0  1.71875 0.41 0  0.06875000000000001 0.41 0  1.16875 0.41 0  2.038220665644273 0.332420740103091 0  0.8810647413215221 0.2027360103977071 0  0.34375 0 0  0.7453891198966415 0.2471459041008237 0  0.42112093004955 0.1988123139090554 0  0.8314023090855964 0.3351170841770613 0  0.89375 0.41 0  0.7906250000000001 0.06615386481594063 0  1.452769549894695 0.1548122580621249 0  1.369219062229598 0.07430640243902442 0  1.30625 0 0  1.07420695807087 0.07430640243902439 0  1.720943423819132 0.1714577452753128 0  1.157188124459196 0.205 0  1.304056576180868 0.1714577452753128 0  1.67579304192913 0.07430640243902437 0  1.209670467133757 0.136210026696477 0  0.4312800784902823 0.08036147352247747 0  0.8723959680194693 0.07066860609690805 0  1.025335513626278 0.1700681449722324 0  0.7945632284247136 0.1940204203251442 0  0.378125 0.3452261501101892 0  0.3307109909790086 0.2037165635083759 0  0.3009701032039409 0.2702970083403109 0  0.20625 0.41 0  1.58125 0 0  0.4812500000000001 0 0  0.9838963872396855 0.2722244191167347 0  0.06772484939107212 0.3260067317374387 0  0.20625 0 0  1.58125 0.41 0  1.631724228912893 0.3381867502687533 0  1.825608881788174 0.14499488549201 0  1.85625 0 0  1.44375 0 0  1.44375 0.41 0  1.85625 0.41 0  2.13125 0.41 0  0.7562500000000001 0.41 0  0.4812500000000001 0.41 0  1.16875 0 0  1.03125 0.41 0  1.03125 0 0  1.71875 0 0  1.99375 0 0  1.99375 0.41 0  0.9408708167433545 0.0651989315768642 0  1.340625 0.3489494290853124 0  1.134375 0.3489494290853123 0  1.700180620188976 0.3438659752031281 0  0.29668452290037 0.1318471691375986 0  0.3175441051360096 0.06496934809856265 0  0.06509151636162461 0.08140814015999148 0  2.135782184673599 0.07126652247502523 0  1.668441847249787 0.2129203728327609 0  1.295782514339747 0.2378437748815763 0  1.409375 0.3520314716057996 0  2.129248544730567 0.1906135162504124 0  2.060771381434487 0.1989445750470348 0  2.013252586573865 0.1496169464686054 0  1.942766402200229 0.1734448904596831 0  1.895522487186454 0.06076163953489683 0  2.069553871656643 0.06605731020975725 0  0.4670911801404742 0.2498408582391372 0  0.7622743084658112 0.1264100838268133 0  1.274680914880868 0.3520219391081363 0  0.3148669572599245 0.3331753056385887 0  1.614713220494657 0.09473434380863296 0  1.72990325744076 0.2380068107952482 0  1.356580098625191 0.2120393231351682 0  2.034370752044885 0.2668681600792073 0  1.51768709249349 0.3426260931494756 0  1.561883724969884 0.1650446847858835 0  1.197344062229598 0.2523725417393646 0  1.804085235518364 0.3468178408964637 0  1.817887819205233 0.2589243285818559 0  1.905897727272727 0.3485060975609756 0  0.7296439733931823 0.06337466644369745 0  0.4250935971865949 0.1394919578475796 0  0.3773030136511669 0.05130372097998036 0  1.192836486056382 0.3562350748565544 0  1.1029124365364 0.226143510831178 0  1.28257088594801 0.2944411014911587 0  0.1905185804731426 0.06029880676029167 0  1.474860187679412 0.2504218616229368 0  1.406767003493824 0.2829282258560709 0  0.5209826960981064 0.2830664557824064 0  0.5131119502780163 0.3617405848213254 0  0.1948220106098172 0.3081993407644811 0  1.845656689180403 0.1998310418452388 0  2.144958525570388 0.2909790873294231 0  2.2 0.15375 0  0.8833025251326762 0.2625402923007629 0  0.171875 0.3653875762360952 0  1.57794966442982 0.3540357145964566 0  0.446875 0.366068291212731 0  0.4272051715206439 0.2891929346190664 0  1.508991196088596 0.1421783375065625 0  1.50436820029908 0.06143401634903343 0  1.223857000523521 0.08235548624535324 0  0.6137904613287555 0.3066826366281556 0  1.153316824384777 0.1289850171317838 0  0.9751573703656133 0.327632618473408 0  2.148922302309752 0.1258841779285271 0  0.9281250000000001 0.3643758685795699 0  1.621993280276081 0.2841214267927899 0  1.550118654119087 0.2461998729100966 0  1.327182649291491 0.1216967252533594 0  0.9939955742738924 0.04663549843168518 0  1.753125 0.04556020050186112 0  1.271875 0.04556020050186116 0  0.9734326767716519 0.1506854560854393 0  0.103125 0.3675775577080512 0  1.94956388244759 0.1180512551534177 0  1.949997712993411 0.04965831614304109 0  0.717433898748555 0.295596016333797 0  1.771961817615021 0.1530278789497521 0  1.909246823951428 0.2812757146784527 0  0 0.35875 0  1.050632804931928 0.1226269704412814 0  0.05695108326502596 0.2024009637347154 0  1.948575539857022 0.2445328248721197 0  1.697271520964565 0.1233917627620729 0  1.065625 0.3689344961371042 0  1.085849084308977 0.3170853572226867 0  0.1015495998772944 0.04226029099983852 0  1.577403511714593 0.05463601888079143 0  1.751571320346033 0.3651102912045228 0  2.2 0.35875 0  0.7441773632462837 0.1786786606458751 0  0 0.05125 0  1.466879772203159 0.3611261772912453 0  0.6282230348858767 0.3577675483994025 0  1.990280163552011 0.3564754268533217 0  1.17471064520912 0.2990917256188288 0  0 0.25625 0  2.2 0.25625 0  2.2 0.05125 0  0 0.15375 0  1.853978576207987 0.35875 0  1.515638456102889 0.2882700110184686 0  2.150453692751374 0.2387066338105111 0  1.323782677156475 0.04897634338873398 0  1.409375 0.03715320121951221 0  1.406484531114799 0.1087852750766809 0  1.134375 0.03715320121951219 0  0.721875 0.3729363922161693 0  0.7941695928236929 0.3696489254637395 0  0.7934827162619036 0.3013409431456604 0  1.627401732573545 0.04552157221025036 0  0.9352049974617431 0.2507047965699472 0  0.8763260682738339 0.3611103317460093 0  2.045405893604797 0.1105340662939892 0  1.255408269734577 0.1577307500159216 0  2.028125 0.03707597992059326 0  1.003030137506755 0.3689344961371042 0  1.248258025468107 0.2565907092181813 0  1.203125 0.03661323374043041 0  0.4800125512335631 0.0549472816999725 0  2.072662025974815 0.2975086504196739 0  0.240625 0.3729825336867542 0  1.113252391110535 0.10238286244357 0  1.071052763974265 0.1885202618768825 0  0.8738809401657862 0.3106483608284829 0  0.6786819423003397 0.2677558482644021 0  1.887722846421017 0.1760882698830035 0  1.472640588990488 0.1118278026240017 0  0.5843750000000001 0.41 0  1.865937103925594 0.2604137786483804 0  1.463913572748262 0.2030442564990043 0  1.376426316059077 0.3186741374914345 0  0.1038643885363755 0.2162701735320032 0  0.1769473813227781 0.1070849728467114 0  0.458787839809176 0.171541653775316 0  0.240625 0 0  0.04179569703428024 0.2877217852556549 0  0.1258346557601885 0.2699740073054968 0  1.722140693354707 0.282908100935778 0  0.41206179117512 0.2448172567039922 0  0.3702471778075604 0.2265217604228704 0  0.3714881805374215 0.1786967818665642 0  1.77397096061971 0.2481483237422926 0  2.105123889160691 0.03743885948498647 0  1.001138337938679 0.229719337663998 0  1.051242910646791 0.2854826559431138 0  1.395420985247586 0.18
[...]
<PointData  Scalars="f_43"> 
<DataArray  type="Float64"  Name="f_43"  format="ascii">1.0819251532040369e-01  2.0456898146323271e-01  6.5478433089574907e-11  2.5382266939951688e-10  8.0671007695750266e-02  8.3784599407010552e-02  7.0336123286694682e-02  6.6620897618076338e-02  1.3708096879342258e-01  1.3861017766860440e-01  8.9507870492454691e-02  7.1418600576242525e-02  -4.3998617184268429e-03  -3.4439179803343141e-03  -7.4336389746251343e-03  -1.4481264942485831e-02  3.5311540190120963e-02  -6.5379368517633979e-03  -2.1361078521592598e-02  8.7272727523691515e-02  1.5896414381492779e-01  1.5194484155262850e-01  7.4529172843144045e-02  1.5975579848747430e-02  -1.9261865281174063e-02  -3.3764530083330677e-02  -2.4551573147995890e-02  -1.0849480198417399e-02  -2.6621819382018110e-03  1.1832562643272666e-01  2.9195260301962838e-03  5.7622626016989392e-02  4.7617502831801127e-02  1.0140574673778563e-01  -1.2607759040288828e-03  9.3067329486428721e-02  9.9299680683342766e-04  -3.2686562041822540e-03  3.2395151921659308e-03  7.1529764904301914e-03  7.0479912117401150e-03  1.4498199205333379e-02  2.9188143645811205e-03  3.4526754083739897e-03  3.6286417483681775e-03  8.0911610318850549e-03  5.3143815756542395e-03  4.2275122484637141e-04  2.3334371692579369e-03  1.5278057032488989e-10  2.6604789779856855e-03  8.0605410940131877e-02  1.7457963969522972e-03  1.7931505477772054e-03  2.3326790546430768e-10  5.5127428657037424e-03  1.1293106996218903e-02  1.0476699294839830e-02  5.1153131057144726e-03  6.8714099104533076e-03  2.1577222304267154e-03  1.0652126365911913e-01  1.1408862391730003e-01  1.0717938390678716e-01  8.2920301885983008e-03  -1.9668838172804022e-03  8.0824278698083275e-03  -5.5940645149139432e-03  1.8355108306329325e-03  7.0274644156869560e-03  2.1702454583031709e-03  9.1660118988620976e-02  9.9700492281376424e-02  6.8590433290640221e-03  1.3202945400363415e-03  2.1353826606755814e-03  8.2989246172466614e-04  3.8569990499290677e-03  1.3707563210765593e-03  4.5420394733658694e-03  1.0897577867620790e-01  1.2877123806319923e-01  1.3027957059008328e-03  7.2083648101792672e-02  2.6130897347104325e-03  5.5036366218790961e-03  7.5080930090915534e-03  3.0110699776205304e-03  3.1519377979611725e-03  5.6223118570843762e-03  9.0002924303098208e-03  2.3287621679875807e-03  -2.4162607122363840e-03  1.6976700822653225e-10  2.3554748220535751e-03  9.0939239145979775e-03  1.2671992027072860e-02  -8.4040485580341490e-04  1.8209356096578276e-03  -1.0020789897387120e-03  3.8908705839874676e-03  2.3750829666101661e-02  5.7500915132315646e-03  -1.7753357150066809e-03  6.3494750440611274e-03  1.1352006404492868e-01  9.0495970350049720e-02  1.2878709833625432e-01  1.0535371122880677e-01  2.1272834306458699e-03  1.0232203154019263e-04  -3.0233331849852229e-03  1.0535062712312485e-03  8.7477198884410566e-04  1.2816085430682314e-01  1.6061226033958064e-03  7.5877168198100024e-03  8.7006454684568343e-02  9.5365324285325834e-02  3.4305224118004171e-02  4.6197547202367671e-03  1.2104579702702270e-01  6.4144152362256473e-03  1.0858079477221373e-01  2.5916759057965253e-03  2.1116273108752522e-03  2.5783060552675000e-03  1.0291301441420279e-01  -2.4129006899687418e-03  9.6647393518221936e-02  1.9942605950023571e-03  1.4196565208983581e-03  -3.7592814352191992e-04  1.0155519133426995e-02  1.4072495628833021e-02  1.3344680444693582e-02  -3.8468662129534617e-03  6.0963400546588465e-03  -2.9284407685617633e-03  7.9163142941228951e-03  6.6288006541194190e-03  4.3145319424036537e-04  1.1706350922953497e-01  -1.2554577635527615e-04  -2.9366386602593972e-03  1.0034677176482328e-03  8.5455138096913852e-02  8.9039250945881776e-02  8.7630179238998435e-02  1.0111995037561092e-01  8.4912198478319517e-03  1.0652574798917713e-01  9.6033993538727658e-04  1.0851751380995191e-01  1.0550490924060092e-01  7.4385818959415472e-03  7.2891707733797979e-03  4.7278198559248356e-03  4.2829739434535720e-03  1.2835903055566051e-02  5.1851155188361881e-03  4.5674458429521853e-03  8.9230977146759411e-04  2.2636410503484284e-03  6.8535448691456557e-02  1.3588144509974177e-03  2.7347211595798947e-03  -3.1631898229434264e-03  5.9965528312548528e-03  2.6073782993857632e-03  2.7029828025165077e-03  -1.0204133807152262e-03  1.7077171060897655e-03  3.5043773598013033e-03  6.6267509389263098e-03  8.7649666550736124e-02  1.0154053774527497e-01  1.2871528579753641e-01  8.1919097438963302e-04  6.8454975616093778e-03  3.3711800037704814e-03  3.6619746463234363e-03  9.0792142190928866e-04  1.7893959037468393e-03  2.3834543017127643e-03  3.2879755727008493e-03  3.8130975010450510e-03  1.6586968876374868e-03  8.1368470257318887e-02  -1.8743212777506946e-03  1.6701532476134059e-03  8.9348716916856488e-02  7.6780092788785465e-03  6.1324506168315088e-03  6.1854732618160952e-03  2.1499213991048359e-03  6.8859157433265412e-03  8.2730890268741756e-03  1.2643386099710015e-03  5.2783641893688936e-03  5.0087211524180207e-03  3.8843807686521846e-03  -2.1148175090788084e-03  1.1824777107918925e-01  1.0626980646503582e-01  2.8843439181988730e-03  -3.0667832840490417e-03  1.5689806386378750e-03  1.0646019314385623e-01  6.7362297720860850e-03  3.7734669799358305e-03  4.6114974882372636e-02  5.8432861428651270e-02  9.2814139177049171e-02  4.5547737508617372e-03  7.1101073625584761e-04  -1.6993673313434952e-10  2.7234702360303779e-03  1.0355698391434566e-01  7.4002233877578380e-03  7.5435794756074259e-02  8.6894029772283096e-02  9.5188578465356787e-03  1.0763758114823135e-02  4.2253185898936960e-03  3.6411674300375948e-04  -4.2272772857727924e-03  2.6501000940306308e-03  6.5408455808487604e-04  2.3718917679146508e-03  7.3752018886790059e-03  7.6620753143554730e-03  1.1793498455306986e-02  -2.1725064289168029e-03  5.5523852859739381e-03  1.0285902991713659e-02  -1.1102967558159220e-03  1.0772574235193619e-01  3.1715749722878513e-03  3.1478803440363290e-03  -2.5319034035475208e-03  5.4100049784010012e-03  3.8073782809754865e-03  1.0803023542114901e-01  -4.2913895488479268e-03  1.2098505153021366e-01  3.2617883528214225e-03  6.3283221845973807e-03  3.3963934315879773e-03  3.0277264223174979e-03  1.2287654654029649e-01  8.6278624926843395e-03  5.9880919206154425e-03  2.5382266939951688e-10  -2.1270561140953326e-03  1.3748439257796538e-01  5.6642972535822693e-03  1.7419986533221604e-02  2.7484687207261957e-03  2.7101248443686140e-03  1.1240353339799615e-01  1.5278057032488989e-10  6.5478433089574907e-11  1.2402038125254500e-01  4.5958941311122284e-03  7.0500398534409361e-03  6.3919504011605984e-04  1.3464664311480502e-02  1.3802286191539129e-02  1.2898495380807094e-02  -1.5839856997720587e-03  4.7983430436639614e-03  1.9691464130177695e-03  1.4229021336904337e-03  7.5088529621600382e-03  1.8176305654535399e-03  1.9661380612422882e-03  1.9686320749119591e-03  4.7875865199608122e-03  2.1791929597212642e-03  3.0514572669153943e-03  2.2490402415065872e-03  3.8010132046661935e-03  1.0959641007141649e-01  1.6551096564211617e-03  9.6180634640018955e-02  -4.7458011701537193e-03  -4.3199443439449160e-03  2.3268570790796936e-03  -1.0408403506412131e-02  3.9879115319749600e-03  1.1126249081804889e-02  3.5171555760235874e-02  4.3692489015555282e-03  8.0670711214343663e-03  2.3812738241543573e-03  1.2394400748058976e-01  1.0746340231455651e-01  1.1648808778125358e-01  1.0251679499994194e-01  1.1021753657074500e-01  1.0646769862707407e-01  6.3158253096032898e-03  9.2053663588701901e-02  9.2111537946585872e-02  9.3116156501982836e-02  5.5777388803586233e-03  1.2070676743266195e-03  -6.2182449382882363e-04  9.9920739961071280e-04  8.4615308792114572e-03  2.2474200390687734e-03  8.3073180862863250e-02  7.7661535830380818e-03  1.2763984844916887e-01  1.3245697530840916e-01  2.0962268881590607e-03  1.1421386755473199e-03  9.2936159241477259e-02  5.1429084853951181e-03  2.7209076093271021e-03  8.9523042636472011e-02  8.4740568492765858e-02  8.6122393197736305e-02  4.8506323599776429e-04  1.3424618901593469e-03  1.6231163145721667e-03  6.3073444052131537e-04  -1.1001880943362168e-03  7.3702866702551727e-03  1.0258299352607532e-02  5.0846332274573063e-03  3.9331083140321146e-02  1.4104085642501799e-01  1.0797939289790334e-01  2.5290574754909152e-03  4.3033207483833226e-03  -2.1708588384952230e-04  8.9812240459049134e-02  9.1722867308936765e-02  -1.0205093715495923e-03  1.1656548682764402e-02  7.2724514838590432e-03  7.2944940360573675e-03  -2.9911166588752467e-03  6.4911261170652575e-03  6.1568297801748431e-03  5.1767133348399024e-04  5.2762200965699954e-04  1.3082219935709821e-01  1.3361443591450300e-01  1.0821719419303800e-01  1.1394875338193516e-01  -9.8129086732132186e-04  -4.2432133149077284e-04  7.2480658479780347e-03  4.9987463852848388e-03  4.1617850221006246e-03  8.9382835823986873e-02  8.2063199798790704e-02  1.0145120946615349e-01  9.4123271656259035e-03  3.3368990858412000e-03  2.7550060006622172e-03  1.3792328045063598e-01  2.2763414491955717e-04  5.0418907345954776e-03  6.1772673994250262e-03  7.0016959601058555e-03  1.0975011729533858e-01  1.8334707195798486e-03  9.7313790215573501e-02  8.7410440793367822e-02  7.9546108608335945e-03  2.1906190072367355e-03  9.0096171142546061e-02  1.3582174637607278e-03  1.2046940278882833e-02  1.8974822044706770e-03  1.0325188586724759e-01  7.5582876103704351e-03  -8.6546010906994890e-04  1.0832335527815964e-01  1.0174916182614849e-01  7.8076862807925113e-02  -1.3781655646419673e-03  -7.5727975439969855e-04  -1.3059026870828390e-03  -5.0344637831894450e-03  5.0190397624405320e-04  1.2828888992145071e-01  1.3139923098260693e-03  8.0478344957597939e-02  9.6676745260752470e-02  6.1431216641851482e-04  -3.9052157121481656e-03  2.6641320282018203e-03  5.4052488935263841e-02  4.0958104189725043e-03  9.7007378656665977e-02  4.2716005808504549e-03  3.8684598581666652e-03  3.4175613075046259e-03  8.7568705414834885e-02  1.0197578069442404e-02  -9.0579126371942626e-04  6.0910299018500204e-03  -3.3939515806550068e-03  -2.9311908811697086e-03  6.8147543414833695e-03  6.9833412460470982e-03  8.6138351283820969e-02  1.1560931287263118e-01  2.1299696275905102e-03  1.1108764998083866e-02  8.8223365883226809e-02  2.3213945879962425e-03  1.2463544186612614e-01  5.2398433790183949e-03  -7.9770996360314960e-04  -3.1330995629259627e-03  2.3969562098043233e-02  8.9894124586883655e-03  -1.0196218338708211e-02  2.1242303310189006e-03  5.3465155509695135e-03  7.3622561298367370e-03  1.0840354987543022e-01  2.1270271225896933e-03  1.7067843400400888e-03  2.6461250839479806e-03  2.5731615632745771e-04  1.0005581255416585e-02  -3.3343423903663483e-03  -1.0362033993835101e-03  -1.9005283384007680e-03  -1.8116515652192086e-04  5.8243424128605311e-03  4.8334957949365022e-03  5.8782632253760762e-03  9.0542022204716226e-03  1.3116805464643775e-02  1.4295868442596796e-02  6.5289867803854694e-03  1.0201187666433324e-02  2.8840084097795852e-03  8.3957425231650798e-02  4.8164169303045274e-03  -1.2467309818110745e-04  7.4596406539417983e-03  6.9833937900855595e-03  4.3547697343687458e-04  -2.7617371338441014e-04  7.2728951637259665e-03  7.7304915690934962e-03  7.0116886391370517e-03  8.1107692896264572e-02  8.4067939788857668e-02  2.0460041367831223e-03  4.6974910740324623e-03  8.8329866091528861e-02  1.7707586548399777e-03  2.2331619360638965e-03  1.2284310310593233e-02  1.1838374945751136e-03  2.9182687356179159e-03  -1.1191020281537854e-03  1.0686872465285595e-03  4.7263173292538574e-04  5.7085545237783326e-03  9.5174961808312392e-03  -2.7319979263744692e-03  -2.9935669538362652e-03  -1.1771913569140831e-03  -6.1975717273575254e-04  1.3281312657889194e-01  1.0928248787333897e-01  1.3670048010674370e-02  3.6004698420016050e-03  1.0377636892128961e-01  -4.1253766967859476e-03  4.4984734899564777e-04  1.0219311287503036e-03  3.1300874527847799e-03  1.1888669675207361e-03  2.8500921072666650e-04  4.3045734055405308e-03  5.0635667196754072e-03  -1.7647031912466969e-03  2.3346913015362429e-03  -6.8502271580097723e-03  2.0816429363817082e-02  -1.6594577511303680e-03  1.8278371448147055e-03  -9.8915569188644497e-06  3.0620225647228546e-03  2.8342232866763037e-03  1.6216486721983480e-03  2.0630896490345134e-03  2.6558717718556404e-03  3.1538782546169319e-03  9.4535153405914049e-02  1.0397932194511376e-01  8.8285842371692187e-03  1.0012484052625299e-03  2.2383972282726608e-03  4.3992306686879692e-03  -5.0674672722734078e-03  7.3767451001780140e-03  7.2600680398408391e-04  3.6081153548647004e-03  6.8129558488790962e-03  2.6500969768316787e-03  2.1938342078796930e-03  -4.4683958564845057e-03  3.1269157352432830e-03  1.5528679622449522e-03  3.2553800668075655e-03  1.0028673167619452e-01  1.0634360681719067e-01  7.9632686048147761e-04  1.4467308503774198e-02  4.3925753181853086e-04  1.3086504801860356e-03  4.3684655608587928e-03  -1.2764902068880903e-03  1.3897192304882780e-02  6.1573704613027344e-03  5.9763644908723572e-03  2.8853828037517723e-03  5.5432456920635025e-03  1.7809307564866930e-03  4.0283000186501789e-03  4.4804455950587109e-04  1.0760638901775328e-01  7.5751311811792565e-02  1.0471398338345432e-01  9.6948741162311641e-02  1.1805407806456394e-01  1.0840479761243361e-01  1.0482953912755555e-01  1.0837864300692029e-01  1.1096116396514997e-03  1.2977807195596954e-03  5.9268237687872143e-02  1.4504049581283289e-02  2.3421663840802820e-03  4.5498325630213372e-03  2.4773472278167854e-03  7.7110198157435660e-03  3.0318775112191665e-03  1.1180343771206514e-02  -2.6209538717507329e-03  2.1787679827728721e-03  3.1618257194381818e-03  -1.4064750235693797e-03  6.4165754204960276e-03  9.1410343849020026e-02  7.1594821465701661e-02  4.9996027293680835e-02  -3.2631892639662743e-03  2.4071377520945908e-03  1.2539559464080385e-01  1.1752503128355442e-02  -3.4249269413058215e-03  1.8794559836294734e-03  2.8761277172630537e-02  9.0363487396614275e-02  3.5546598594280430e-03  1.9021343907161747e-03  8.1925596955229454e-02  3.2628945515608774e-03  7.2678560658864279e-03  6.4933754997163898e-03  3.6605625735180473e-03  4.7771883582541997e-03  4.4351352583203085e-03  6.5310712122297124e-03  4.0546949606485843e-03  1.1552461297920200e-03  6.3603434892171278e-03  4.6480816209323508e-03  6.9043743560147711e-03  5.8210554733600173e-03  3.5989013945275329e-03  6.4243997441144046e-03  8.1357606428155028e-03  1.7587235319660285e-03  1.4378402632365141e-03  1.0116198590890767e-01  6.7840790490520164e-02  1.5259196498987738e-03  -9.4155501718001496e-04  8.9421335731951421e-03  2.0696943653232842e-03  3.5446103375117205e-03  3.6334875613322801e-03  1.4820371005127815e-03  -5.1477774737509682e-03  2.0865958552627284e-03  5.2754926671302188e-03  1.0267192414110221e-01  4.8625432615129194e-03  6.6496173493398704e-03  4.6443888499544776e-03  3.0157285815956979e-03  1.0740702181989359e-01  4.0939295131535989e-04  5.3951591943200087e-04  8.4301195506162416e-03  8.4629820564584082e-02  -2.1369108687517790e-02  8.4204408062738857e-03  7.1853058130547280e-03  3.8616666767516158e-03  1.2785370955403336e-01  7.3202057281822174e-03  -2.3233581497730548e-03  7.3767434475969090e-03  2.4901843425964407e-03  1.0677663565911193e-01  1.1349977422888984e-01  8.4621537311179319e-03  1.3356023299547114e-02  1.3210337295821439e-01  1.0787745698869042e-01  4.3312316591250250e-03  2.5025168530088083e-03  3.4064863228072855e-03  1.8135263897335904e-03  3.1818749194627862e-03  8.9931285175637136e-03  5.0493919215684434e-03  2.8640032052671812e-03  5.9623280776186748e-03  1.1293695580618571e-01  9.9946742874742298e-02  -3.4680104435537750e-03  3.0220490827913790e-03  2.1901352889701032e-03  -6.5938659411270758e-04  6.8729421735857204e-03  1.1697016860858656e-02  9.8598731288072738e-03  5.3658815883391988e-03  4.7922785232907914e-03  1.3720907051054624e-03  1.1028435735155395e-02  2.9622482663023498e-03  1.5793371702491044e-01  1.0810233992414017e-01  8.9207122897366174e-03  3.7868493603631774e-03  -5.2263364874626022e-03  1.0156079051530356e-01  1.3752215492615863e-03  7.2831250247811898e-03  1.0961736016034337e-01  8.3723685698265021e-02  2.7895914507061739e-03  1.1009444451428367e-01  8.9055671925495489e-02  2.0556979296583976e-03  -8.8795068421324043e-03  1.5857125065089833e-02  5.0719910836403995e-02  8.0492606717636628e-03  4.8031726598121195e-03  -3.3817346037432817e-04  1.2752519792789284e-03  1.2072103672153588e-01  4.6344183296159643e-03  1.7683512615421062e-03  7.3541993502368530e-03  4.2246020229570261e-03  1.5278057032488989e-10  9.0397514344206412e-02  2.4612064167066007e-03  2.9318785815079284e-03  -2.6774326985119154e-03  2.5371711344601990e-03  7.1451188182798343e-03  1.0977156973042212e-01  1.2487073258081959e-01  4.5226055742378851e-04  1.7607414185264599e-03  8.6076780834242764e-02  9.9504215697288553e-02  1.2209046205135334e-01  3.9628650525497288e-03  6.2834824235565075e-03  6.7701984566046194e-03  6.1458164725198966e-03  7.5360909647838696e-03  1.2982106537154810e-02  4.3658109205914515e-03  1.3531820353895540e-03  1.1385657393051690e-01  2.9360330116733045e-03  4.9612676724952228e-03  2.7732432014444127e-03  4.6864431975851641e-02  9.0624882599833506e-02  8.2482760698813343e-02  4.1725035189672417e-03  1.1230931816318311e-01  1.4955287116705211e-02  6.6163153522828247e-03  -4.5126678233167340e-03  -2.7031458109504588e-03  -9.5935876810749287e-04  -3.3981375825936884e-03  1.6976700822653225e-10  1.3405408225055307e-01  8.7903781930580571e-02  1.9796120646140875e-03  2.1908701498123688e-03  2.0829767185477936e-03  1.6808720233046864e-03  5.8555071711712016e-03  1.0253171245809155e-01  9.3163208946551432e-02  1.6453515150011672e-02  3.4150670752722090e-03  6.4197509074647455e-02  -2.6890472519828755e-03  2.5177325663216766e-03  9.9518303002094910e-03  7.2479861830870114e-03  3.1165977481135955e-02  7.8497356524997661e-03  4.8487424954417706e-03  5.7410219098441937e-03  8.2138846775797910e-04  9.0155144934428498e-04  3.7609361742384976e-04  8.0380672525725200e-02  5.3545593640581736e-02  4.2536523174373318e-03  2.7850599225097759e-03  -5.4501519070341035e-03  1.9187034849285050e-03  1.2410278112887238e-02  5.7764694316080542e-03  5.2833518744260684e-03  1.1667831536967352e-01  8.0654326654042100e-03  -2.2944677131301102e-03  -5.3847017416480533e-03  1.0817882832245339e-01  7.6483444005691599e-03  8.3847559585607773e-02  -2.5529936379508505e-03  1.0316488711868024e-01  2.5573399727928997e-03  1.0835267643027044e-02  2.0469669901642144e-03  8.9486816256619320e-02  -4.8809979554904144e-04  -2.0844436514586609e-03  1.5278057032488989e-10  2.8968074157217820e-03  1.9404446388306188e-03  7.4708648725530114e-03  7.3875302174733030e-03  9.0468727462237664e-02  8.8168398291255431e-02  3.5320274067565725e-03  2.2509207447368940e-04  3.2945875302275952e-03  1.4234060543351819e-03  7.7718300661205712e-03  7.5604959508208209e-03  7.6772745253685624e-03  7.4134169231482833e-02  1.6536150965736664e-03  -1.7481654256470802e-03  1.6549802853475276e-03  7.4746037227734156e-03  3.5241802505769468e-03  2.2735122123767860e-03  2.7283094173461198e-03  4.9324571627900118e-03  5.6177014987823185e-03  3.4788257842693500e-03  3.3232028449274227e-03  1.0044790988745576e-01  1.1035018718068240e-01  6.2965671722194222e-03  1.1719655013035125e-01  1.0620303924371673e-01  5.5291211031142547e-03  -2.0498352122624446e-04  -1.9924198921359229e-03  -1.5728531423158034e-03  2.6594940498768319e-03  2.2666691454626423e-04  4.4920232322533740e-03  7.7838459801374243e-02  4.0910137252021372e-03  1.7397219056883232e-03  -3.2332498680174415e-03  8.1483012578615177e-02  -7.1881208686326733e-04  6.6087411769422929e-03  2.4233964154171377e-03  1.1958757490450544e-01  1.0846178188660144e-01  7.5094075613352813e-03  2.3223314105409597e-03  1.1932426014465071e-02  7.9986224240543528e-03  1.4168951281577151e-02  1.0803803847149147e-01  5.7238947934100141e-03  9.3040852112473788e-02  7.4195791491703401e-03  6.9928096590996427e-02  8.6864250659724482e-04  5.0702300112786891e-03  6.7264712481977258e-03  1.0728572435957211e-01  1.3874444385627931e-03  5.5574217112598252e-03  5.7145809716974989e-03  6.35