<?xml version="1.0"?>
<VTKFile type="UnstructuredGrid"  version="0.1"  >
<UnstructuredGrid>
<Piece  NumberOfPoints="1404" NumberOfCells="2604">
<Points>
<DataArray  type="Float64"  NumberOfComponents="3"  format="ascii">0 0.41 0  0 0 0  2.2 0 0  2.2 0.41 0  0.2353553390593274 0.2353553390593274 0  0.25 0.2 0  0.2353553390593274 0.1646446609406726 0  0.2 0.15 0  0.1646446609406726 0.1646446609406726 0  0.15 0.2 0  0.1646446609406726 0.2353553390593274 0  0.2 0.25 0  0.6923879532511287 0.188268343236509 0  0.7 0.15 0  0.6923879532511287 0.1117316567634909 0  0.6707106781186547 0.07928932188134523 0  0.6382683432365089 0.05761204674887133 0  0.6 0.04999999999999999 0  0.5617316567634909 0.05761204674887134 0  0.5292893218813453 0.07928932188134524 0  0.5076120467488713 0.111731656763491 0  0.5 0.15 0  0.5076120467488713 0.188268343236509 0  0.5292893218813453 0.2207106781186547 0  0.561731656763491 0.2423879532511287 0  0.6 0.25 0  0.6382683432365089 0.2423879532511287 0  0.6707106781186547 0.2207106781186547 0  1.1 0 0  0 0.205 0  1.1 0.41 0  0.55 0 0  0.55 0.41 0  0.275 0 0  0.8250000000000001 0 0  0.275 0.41 0  0.8250000000000001 0.41 0  0.6875 0 0  0.61875 0 0  1.65 0.41 0  1.65 0 0  1.375 0 0  1.375 0.41 0  1.925 0 0  1.925 0.41 0  1.5125 0.205 0  1.7875 0.205 0  0.9625000000000001 0.205 0  1.2375 0.205 0  2.2 0.205 0  1.99375 0.2152743902439024 0  0.4125 0.41 0  2.0625 0 0  2.0625 0.41 0  2.2 0.3075 0  1.7875 0.41 0  1.375 0.1486128048780488 0  1.5125 0 0  1.7875 0 0  1.5125 0.41 0  0.9625000000000001 0.41 0  0.4125 0 0  0.1375 0 0  0.1375 0.41 0  0.6875 0.41 0  0.9625000000000001 0 0  1.2375 0 0  1.1 0.1486128048780488 0  1.2375 0.41 0  1.65 0.1486128048780487 0  0.823495464168302 0.2603780552348366 0  0.3738707794507017 0.2720196349488618 0  0.3662291281331582 0.1311456406657909 0  1.676715909090909 0.2793064024390244 0  1.126715909090909 0.2793064024390244 0  1.348284090909091 0.2793064024390244 0  0.8287581077665108 0.1302150898054257 0  1.894702181800738 0.1282910975492754 0  2.092797818199262 0.1282910975492754 0  1.85625 0.3075 0  0 0.3075 0  0 0.1025 0  2.099172119769978 0.25625 0  0.4752414543992246 0.3180372603390748 0  1.99375 0.08395950269330846 0  1.459960956013612 0.3075 0  1.569025960719943 0.2986889805672169 0  1.03125 0.3278689922742084 0  1.959375 0.3126371951219512 0  1.749222215368287 0.1025 0  1.275777784631713 0.1025 0  0.9228016959331474 0.3075 0  1.000777784631713 0.1025 0  2.2 0.1025 0  1.225938124459196 0.3075 0  1.550777784631713 0.1025 0  1.44375 0.07430640243902442 0  1.16875 0.07430640243902439 0  0.7562500000000001 0.3358727844323386 0  0.89375 0 0  1.899250267340833 0.2229966846119207 0  0.61875 0.41 0  1.766482954545455 0.2934032012195123 0  1.046078563095834 0.2389031808701145 0  1.421109702350723 0.2261157654379721 0  0.07567171807980319 0.25625 0  0.2511897295290552 0.3235829392832554 0  0.07655002503762308 0.1488653460959645 0  0.1377245246847496 0.3206030474919778 0  0.6694099692696568 0.3242771941727899 0  0.9168971191497528 0.1295727156104653 0  0.7562500000000001 0 0  2.118919042110979 0.3422084711244843 0  2.13125 0 0  0.06875000000000001 0 0  1.30625 0.41 0  1.597888256393107 0.2173787389261347 0  0.34375 0.41 0  0.2493272016354703 0.08091360081773515 0  0.5588896233436766 0.3264056208677571 0  1.829299675393195 0.07400700849299596 0  0.1334079128307869 0.08523463035786674 0  1.71875 0.41 0  0.06875000000000001 0.41 0  1.16875 0.41 0  2.038220665644273 0.332420740103091 0  0.8810647413215221 0.2027360103977071 0  0.34375 0 0  0.7453891198966415 0.2471459041008237 0  0.42112093004955 0.1988123139090554 0  0.8314023090855964 0.3351170841770613 0  0.89375 0.41 0  0.7906250000000001 0.06615386481594063 0  1.452769549894695 0.1548122580621249 0  1.369219062229598 0.07430640243902442 0  1.30625 0 0  1.07420695807087 0.07430640243902439 0  1.720943423819132 0.1714577452753128 0  1.157188124459196 0.205 0  1.304056576180868 0.1714577452753128 0  1.67579304192913 0.07430640243902437 0  1.209670467133757 0.136210026696477 0  0.4312800784902823 0.08036147352247747 0  0.8723959680194693 0.07066860609690805 0  1.025335513626278 0.1700681449722324 0  0.7945632284247136 0.1940204203251442 0  0.378125 0.3452261501101892 0  0.3307109909790086 0.2037165635083759 0  0.3009701032039409 0.2702970083403109 0  0.20625 0.41 0  1.58125 0 0  0.4812500000000001 0 0  0.9838963872396855 0.2722244191167347 0  0.06772484939107212 0.3260067317374387 0  0.20625 0 0  1.58125 0.41 0  1.631724228912893 0.3381867502687533 0  1.825608881788174 0.14499488549201 0  1.85625 0 0  1.44375 0 0  1.44375 0.41 0  1.85625 0.41 0  2.13125 0.41 0  0.7562500000000001 0.41 0  0.4812500000000001 0.41 0  1.16875 0 0  1.03125 0.41 0  1.03125 0 0  1.71875 0 0  1.99375 0 0  1.99375 0.41 0  0.9408708167433545 0.0651989315768642 0  1.340625 0.3489494290853124 0  1.134375 0.3489494290853123 0  1.700180620188976 0.3438659752031281 0  0.29668452290037 0.1318471691375986 0  0.3175441051360096 0.06496934809856265 0  0.06509151636162461 0.08140814015999148 0  2.135782184673599 0.07126652247502523 0  1.668441847249787 0.2129203728327609 0  1.295782514339747 0.2378437748815763 0  1.409375 0.3520314716057996 0  2.129248544730567 0.1906135162504124 0  2.060771381434487 0.1989445750470348 0  2.013252586573865 0.1496169464686054 0  1.942766402200229 0.1734448904596831 0  1.895522487186454 0.06076163953489683 0  2.069553871656643 0.06605731020975725 0  0.4670911801404742 0.2498408582391372 0  0.7622743084658112 0.1264100838268133 0  1.274680914880868 0.3520219391081363 0  0.3148669572599245 0.3331753056385887 0  1.614713220494657 0.09473434380863296 0  1.72990325744076 0.2380068107952482 0  1.356580098625191 0.2120393231351682 0  2.034370752044885 0.2668681600792073 0  1.51768709249349 0.3426260931494756 0  1.561883724969884 0.1650446847858835 0  1.197344062229598 0.2523725417393646 0  1.804085235518364 0.3468178408964637 0  1.817887819205233 0.2589243285818559 0  1.905897727272727 0.3485060975609756 0  0.7296439733931823 0.06337466644369745 0  0.4250935971865949 0.1394919578475796 0  0.3773030136511669 0.05130372097998036 0  1.192836486056382 0.3562350748565544 0  1.1029124365364 0.226143510831178 0  1.28257088594801 0.2944411014911587 0  0.1905185804731426 0.06029880676029167 0  1.474860187679412 0.2504218616229368 0  1.406767003493824 0.2829282258560709 0  0.5209826960981064 0.2830664557824064 0  0.5131119502780163 0.3617405848213254 0  0.1948220106098172 0.3081993407644811 0  1.845656689180403 0.1998310418452388 0  2.144958525570388 0.2909790873294231 0  2.2 0.15375 0  0.8833025251326762 0.2625402923007629 0  0.171875 0.3653875762360952 0  1.57794966442982 0.3540357145964566 0  0.446875 0.366068291212731 0  0.4272051715206439 0.2891929346190664 0  1.508991196088596 0.1421783375065625 0  1.50436820029908 0.06143401634903343 0  1.223857000523521 0.08235548624535324 0  0.6137904613287555 0.3066826366281556 0  1.153316824384777 0.1289850171317838 0  0.9751573703656133 0.327632618473408 0  2.148922302309752 0.1258841779285271 0  0.9281250000000001 0.3643758685795699 0  1.621993280276081 0.2841214267927899 0  1.550118654119087 0.2461998729100966 0  1.327182649291491 0.1216967252533594 0  0.9939955742738924 0.04663549843168518 0  1.753125 0.04556020050186112 0  1.271875 0.04556020050186116 0  0.9734326767716519 0.1506854560854393 0  0.103125 0.3675775577080512 0  1.94956388244759 0.1180512551534177 0  1.949997712993411 0.04965831614304109 0  0.717433898748555 0.295596016333797 0  1.771961817615021 0.1530278789497521 0  1.909246823951428 0.2812757146784527 0  0 0.35875 0  1.050632804931928 0.1226269704412814 0  0.05695108326502596 0.2024009637347154 0  1.948575539857022 0.2445328248721197 0  1.697271520964565 0.1233917627620729 0  1.065625 0.3689344961371042 0  1.085849084308977 0.3170853572226867 0  0.1015495998772944 0.04226029099983852 0  1.577403511714593 0.05463601888079143 0  1.751571320346033 0.3651102912045228 0  2.2 0.35875 0  0.7441773632462837 0.1786786606458751 0  0 0.05125 0  1.466879772203159 0.3611261772912453 0  0.6282230348858767 0.3577675483994025 0  1.990280163552011 0.3564754268533217 0  1.17471064520912 0.2990917256188288 0  0 0.25625 0  2.2 0.25625 0  2.2 0.05125 0  0 0.15375 0  1.853978576207987 0.35875 0  1.515638456102889 0.2882700110184686 0  2.150453692751374 0.2387066338105111 0  1.323782677156475 0.04897634338873398 0  1.409375 0.03715320121951221 0  1.406484531114799 0.1087852750766809 0  1.134375 0.03715320121951219 0  0.721875 0.3729363922161693 0  0.7941695928236929 0.3696489254637395 0  0.7934827162619036 0.3013409431456604 0  1.627401732573545 0.04552157221025036 0  0.9352049974617431 0.2507047965699472 0  0.8763260682738339 0.3611103317460093 0  2.045405893604797 0.1105340662939892 0  1.255408269734577 0.1577307500159216 0  2.028125 0.03707597992059326 0  1.003030137506755 0.3689344961371042 0  1.248258025468107 0.2565907092181813 0  1.203125 0.03661323374043041 0  0.4800125512335631 0.0549472816999725 0  2.072662025974815 0.2975086504196739 0  0.240625 0.3729825336867542 0  1.113252391110535 0.10238286244357 0  1.071052763974265 0.1885202618768825 0  0.8738809401657862 0.3106483608284829 0  0.6786819423003397 0.2677558482644021 0  1.887722846421017 0.1760882698830035 0  1.472640588990488 0.1118278026240017 0  0.5843750000000001 0.41 0  1.865937103925594 0.2604137786483804 0  1.463913572748262 0.2030442564990043 0  1.376426316059077 0.3186741374914345 0  0.1038643885363755 0.2162701735320032 0  0.1769473813227781 0.1070849728467114 0  0.458787839809176 0.171541653775316 0  0.240625 0 0  0.04179569703428024 0.2877217852556549 0  0.1258346557601885 0.2699740073054968 0  1.722140693354707 0.282908100935778 0  0.41206179117512 0.2448172567039922 0  0.3702471778075604 0.2265217604228704 0  0.3714881805374215 0.1786967818665642 0  1.77397096061971 0.2481483237422926 0  2.105123889160691 0.03743885948498647 0  1.001138337938679 0.229719337663998 0  1.051242910646791 0.2854826559431138 0  1.395420985247586 0.18
[...]
<PointData  Scalars="f_43"> 
<DataArray  type="Float64"  Name="f_43"  format="ascii">3.2894388000076408e-01  4.2589597237316024e-01  -1.5168413628865222e-10  3.1034797409765758e-09  2.4880206949510611e-01  2.5976564129919172e-01  2.5353184913019811e-01  2.8751922452147516e-01  3.4848093964955601e-01  3.7366369891328632e-01  3.1432516857975645e-01  2.4748306861104682e-01  8.7337771885980978e-02  9.5656862302121906e-02  9.4543081344919386e-02  6.0217013432815387e-02  1.1901877947868049e-01  9.5560987989458598e-02  1.2258965441996565e-01  2.4824347076954439e-01  2.9872622003725618e-01  3.1034541871675986e-01  2.8011097907407273e-01  2.2515475588317058e-01  1.5707720289799351e-01  1.0406994250284843e-01  5.0825311355108385e-02  8.5627546512192218e-02  8.0686220601957237e-02  3.2777210789120792e-01  7.9768251915514871e-02  1.8375049903573090e-01  1.9107016432990392e-01  2.9747432744418989e-01  9.4838335667240883e-02  2.8228951863260027e-01  9.5692378584237570e-02  8.5854001835288060e-02  1.0307157540314434e-01  4.0252533149352822e-02  3.8875665220866946e-02  5.8550083542364247e-02  6.0188841118031348e-02  2.1750430700286896e-02  2.2097161694929184e-02  5.0193317327229578e-02  3.0294904519646414e-02  9.1022019400687701e-02  7.0371985007906701e-02  1.6173707202984477e-09  1.5118864429300997e-02  2.5063206472425870e-01  9.3111043964046857e-03  9.2951649721895874e-03  1.5689888867367582e-10  2.9171689740343523e-02  6.0113216191905912e-02  4.8595522673999532e-02  3.0563999040193766e-02  4.8498907237863362e-02  9.1664926121732271e-02  2.8133352702432551e-01  3.3288605090057843e-01  3.1841701963110952e-01  1.3064135227341181e-01  9.1170604635800789e-02  7.1512374455818345e-02  8.0544478026668476e-02  7.2252660890799791e-02  4.0353340346291802e-02  1.0363129288149428e-01  2.6670830947315322e-01  2.8522783816906006e-01  3.8496471911314833e-02  7.8765373848551007e-02  6.2120031853363289e-02  9.8582245437034560e-02  2.2322130539504076e-02  7.6977432482188465e-03  2.5243947244196357e-02  3.2085456374146681e-01  3.4582856679371504e-01  7.4436520583267352e-03  2.3104940668166804e-01  1.4873798098769986e-02  5.3950316634058658e-02  4.6268589555529351e-02  8.6226625222546510e-02  1.7825950465616875e-02  3.3170270285709937e-02  6.7384537607449113e-02  9.5465310835985362e-02  8.7356980426918585e-02  4.3259348893367180e-09  7.1284050962783632e-02  4.7408384013431955e-02  5.4956992743126098e-02  7.5489325242927494e-02  1.1381064827198654e-01  9.2164349865559381e-02  2.2077077249681814e-02  1.5367127008156814e-01  3.1859863938077784e-02  8.4871156852286578e-02  5.6799181614705978e-02  3.3162237769869424e-01  2.8238910076463641e-01  3.4969565691439319e-01  3.1506313104717165e-01  1.2923937159399673e-01  9.3061719009881791e-02  9.1598700334047031e-02  6.1080860203396410e-03  1.3425092840016499e-02  3.5709767016037219e-01  6.5179050965314261e-02  4.4101918476620885e-02  2.6626310706411777e-01  3.0061779097043545e-01  1.8134955670140809e-01  2.7198197280416805e-02  3.3859348966572800e-01  3.5218041705846380e-02  3.3179369857426672e-01  7.5264074849380580e-02  1.2163521138270321e-02  9.7178065609118153e-02  2.8931189414944958e-01  1.0851988470505101e-01  2.7637568495128628e-01  1.0439296014612560e-01  9.6213785461605444e-02  9.7131828179692042e-02  5.4441349737905008e-02  6.0446443439176357e-02  6.4804909799278443e-02  8.2188152574317788e-02  3.5192172856560747e-02  7.6386157653800607e-02  6.5377206155986009e-02  3.8482838886955563e-02  7.2434296759308167e-02  2.8532571520287558e-01  9.4292136309228725e-02  8.6057572649881897e-02  1.0332958011745177e-01  2.5969070362724200e-01  2.7721964309927805e-01  2.7323562477250474e-01  2.9862601373929426e-01  4.4799357660662620e-02  2.6511159779567578e-01  8.9949547521292000e-02  3.2635840081806111e-01  3.1585554789524967e-01  4.5450081519897968e-02  4.1892663476835720e-02  2.7472313987847680e-02  2.3986146594723198e-02  5.4782257497042998e-02  5.7166256518693954e-02  2.4959128544700199e-02  5.0284149910059407e-03  1.1440810166039575e-01  2.2573708316508059e-01  7.6005437130704900e-02  8.6273104903854272e-02  8.6783064181565880e-02  3.6837894729876523e-02  1.3966452717649871e-02  1.4050885761161662e-02  9.0874299832316333e-02  6.2677177901062725e-02  7.8143826192225527e-02  3.7025256390864708e-02  2.8662972303200329e-01  2.9201521047659890e-01  3.5139230536729038e-01  4.8374608570271298e-03  3.9020471313918864e-02  6.6024177035105158e-02  5.7566663179452707e-02  5.1538934529764251e-03  1.0163556257197981e-02  1.3543050822779745e-02  1.8809348163531841e-02  2.2242233337485054e-02  8.9266356118956822e-03  2.5209134659473476e-01  1.0199892878415667e-01  6.7731617249739334e-02  2.7259717262500782e-01  4.2898320957554803e-02  3.4543104595459763e-02  6.1520487187476623e-02  1.2234671345080767e-02  4.9717092502074213e-02  4.6640779316454863e-02  7.3411977441916423e-02  2.8926170235270297e-02  2.8059207812238383e-02  2.1801611186168898e-02  9.6881759697221209e-02  2.8735470696362947e-01  2.8680624370516139e-01  7.3972105756117609e-02  8.0495357312255392e-02  6.6974750370211472e-02  3.1872613117127735e-01  5.2909739070900560e-02  5.7841079537179180e-02  2.1071314033138161e-01  2.0952839808321252e-01  2.9392675380844618e-01  2.6003275770454498e-02  4.1007361631387115e-03  -2.2160904881532472e-09  9.8386937400645635e-02  3.0647041083673421e-01  4.5754590629116236e-02  2.3865489445574370e-01  2.5334004798178295e-01  5.0373108258669759e-02  5.0365094459666380e-02  7.1380308192501046e-02  1.4205218581371282e-01  7.6628021640439914e-02  9.0886672812201003e-02  3.6856793270280889e-03  9.5279791331784575e-02  4.2456193853091184e-02  4.7533468622737163e-02  6.3592336448566184e-02  8.7534461443131859e-02  3.2821770574397384e-02  6.7598215643679627e-02  8.9612691560825311e-02  3.2328231820654629e-01  1.8230815673636977e-02  1.8184447779583484e-02  1.1588469166472905e-01  3.1444395775794658e-02  2.1404433118832292e-02  3.2331145412271178e-01  8.4029040074478686e-02  3.3998283892307890e-01  1.8478682977320370e-02  3.6954529423601577e-02  8.3610089533065965e-02  8.1891843722968483e-02  3.4583783509534893e-01  4.5688521217515314e-02  3.3097319965146997e-02  3.1034797409765758e-09  1.0380231291381481e-01  3.6342332927967175e-01  5.3235248190762863e-02  1.4743949478434568e-01  1.5633361578016276e-02  7.5147905976085977e-02  3.2047258061490430e-01  1.6173707202984477e-09  -1.5168413628865222e-10  3.3991014280034254e-01  2.5377971323313792e-02  4.9982163666317657e-02  3.6475749218590871e-03  6.3822679243415864e-02  5.7267691942533352e-02  5.7739289204717915e-02  7.8396940518106320e-02  1.2138325133917752e-01  1.0876539852118150e-01  1.0809572282325744e-01  4.2104116388938004e-02  9.3765747682384284e-02  9.9221104645719344e-02  1.1028676498353068e-02  6.9000174408748199e-02  1.1022792649841292e-02  8.8315993488645869e-02  6.9581247675814556e-02  7.3482575062359265e-02  2.7125607016020958e-01  9.4718902761955631e-03  2.8898162778680925e-01  7.9539533803655416e-02  8.2787328470375759e-02  1.0006397652872831e-01  1.0712855303793313e-01  2.2883377456066833e-02  5.2916098274133690e-02  1.6951955364907928e-01  2.4538398396475709e-02  5.3680102763999052e-02  6.0112845301993484e-02  3.4503655128992822e-01  3.2266297502431013e-01  2.8684979670446931e-01  3.0506721542839216e-01  3.2727635849702708e-01  3.2278710133692418e-01  3.5153449798877960e-02  2.6568129739428592e-01  2.7282595406734267e-01  2.7967518068095082e-01  3.1296968243856235e-02  6.6212674422075563e-03  8.8258071876659433e-02  8.4606467739067825e-02  5.8651300407774221e-02  1.4979927523687936e-02  2.7760910003192618e-01  4.3720943991829506e-02  3.5059515836047939e-01  3.5248263554864179e-01  9.9342267624473624e-02  9.6231765824361729e-02  2.4141748295543455e-01  2.8469186072473385e-02  1.5440244852377251e-02  2.8192687532373639e-01  2.7911799905468537e-01  2.7506941072551144e-01  2.8103118956758371e-03  9.2540425157071182e-03  9.5254427406552145e-03  9.2684216160848390e-02  9.0233078260882740e-02  4.3319611450578596e-02  1.3481765760618164e-01  2.9864627840700576e-02  1.7941473533704089e-01  2.9299851738970056e-01  2.7877017879029525e-01  1.4374073629506250e-02  5.9597747394079477e-02  1.6200472290956175e-01  2.7393074343846585e-01  2.7864349428968077e-01  7.3367282951529528e-02  5.0982984216158891e-02  4.1680156031613826e-02  4.9779841617830882e-02  8.4907618426903808e-02  3.9418380756646575e-02  3.6459984225129499e-02  2.4441794739444643e-03  2.5691485908345886e-03  3.6682178604489224e-01  3.6320900097794262e-01  3.2883671663011627e-01  3.3146306522269392e-01  9.3500655208240663e-02  9.4960014955677061e-02  4.1470479468114642e-02  2.9652123141043395e-02  2.4303170848380386e-02  2.6693952275119004e-01  2.8917634621075528e-01  2.9797854875113250e-01  4.9706841394321077e-02  1.8798052523668382e-02  1.0086511757972406e-01  3.6063963536469340e-01  9.6443802239660717e-02  2.8861987990811282e-02  3.4125640845952654e-02  3.9972955314156185e-02  2.8664164440182288e-01  1.0357766145104535e-02  2.8821502294857709e-01  2.6715846962971740e-01  4.7262407467690642e-02  7.0864021436163618e-02  2.7342689638277295e-01  7.6770013190771789e-03  5.2872336806169346e-02  9.4260847906209005e-02  3.0854398842036640e-01  4.4717763744935843e-02  9.4684496411955379e-02  3.2386285833498174e-01  2.9228713958831498e-01  2.2438332190836840e-01  9.0144147266185845e-02  9.2376532511998483e-02  7.7724456694950872e-02  7.7830307878005295e-02  2.8431551540458351e-03  3.4929965363314336e-01  6.4097896216839950e-02  2.4493746987965792e-01  2.9287508041250904e-01  1.0593332498112253e-01  1.0435523613680951e-01  1.5009853556078532e-02  2.0616909384546878e-01  2.1444927982603289e-02  3.0742756160583340e-01  2.4897705512419713e-02  2.1032797066845604e-02  1.9894736192493000e-02  2.6838071499398070e-01  5.0140951857624683e-02  8.2288798294614551e-02  3.5862480181694446e-02  8.4964642426465092e-02  8.0711554337870417e-02  3.9058952302758250e-02  4.0170963579923613e-02  3.0112874407160611e-01  3.3044411130094126e-01  1.2496988958507007e-02  5.7237301874777664e-02  2.5958580839874157e-01  1.2059339179104252e-01  3.4431028390363594e-01  3.0953535955710636e-02  1.1133585816466374e-01  9.0505293289596042e-02  1.6162531016469037e-01  5.1819535546992826e-02  1.2204914856556338e-01  1.1689332466849620e-02  5.5151243371284644e-02  5.0203709541502640e-02  3.2500726511134231e-01  1.0406867135146590e-01  1.0258332794394971e-01  9.1027091210182445e-02  1.0174915144085096e-01  4.8379987589784769e-02  8.2745569071777214e-02  9.5998520852696362e-02  9.3410806970400259e-02  9.8905655052526090e-02  3.3247474685337508e-02  6.7367819278062388e-02  3.4364347183186331e-02  6.6182746955472965e-02  6.0464407896603435e-02  6.0757729637592135e-02  3.7756810554786906e-02  6.2795783191884003e-02  1.6466979583837745e-02  2.7110260681759213e-01  6.9824720672306217e-02  7.3736106126202058e-02  4.3932828598483256e-02  3.9254160439615694e-02  9.5573479081458371e-02  9.2887667192370460e-02  4.1817263303630406e-02  4.4257911791198437e-02  4.8742449701110378e-02  2.5183840382317063e-01  2.5914614118839147e-01  8.8481870151642342e-02  2.9229062999377286e-02  2.7572484887351828e-01  1.0070221124304475e-02  1.2694247474652620e-02  6.4690643857757094e-02  6.8030820673448157e-03  1.1489574314709323e-01  1.0576006327864391e-01  6.0884403621240561e-03  2.6827179017658927e-03  3.1346367614889681e-02  4.7742415806550788e-02  8.5269743712540869e-02  8.6477675622494629e-02  8.8624320004505361e-02  9.2941255758795013e-02  3.5828143252192401e-01  3.2187768424126478e-01  5.7540145696168027e-02  8.0946477852046464e-02  2.8842630948663217e-01  1.0025297968446793e-01  2.5311564719403168e-03  5.7075455496733750e-03  1.7808427546459692e-02  7.2671641402991382e-03  7.2938237506882886e-02  2.5030794522394140e-02  2.9204237018081444e-02  9.8786773064486272e-02  9.7378105265597939e-02  1.0132340890710954e-01  1.4494396412185021e-01  8.8976556970810611e-02  9.2866925699937625e-02  8.7014992764066976e-02  7.6012922643917250e-02  7.9794433729879974e-02  6.4356818771211924e-02  6.2254661683171286e-02  6.0279445096826020e-02  7.7734399201354151e-02  2.9319596736067405e-01  2.9013649047132023e-01  5.5987112745090474e-02  5.6478637227788701e-03  7.1809749373052692e-02  2.5364661028445163e-02  8.0180933720108941e-02  7.0322846341366374e-02  9.0924412159165052e-02  5.7484723351544441e-02  3.9360414604393629e-02  1.5091966151632946e-02  1.2454285795953656e-02  8.3675004936355615e-02  1.7673780396140579e-02  6.5944908917757256e-02  7.9229589178190826e-02  2.9743614891267472e-01  3.1589002938906774e-01  7.5257811336332428e-02  6.2048688113347350e-02  5.6188818001470960e-04  2.0910589189064552e-04  1.2007642894715681e-01  7.7307460201544415e-02  5.6388035153207616e-02  5.0805708142058696e-02  3.2462349552484428e-02  8.3559039785698869e-02  3.1398299866054358e-02  9.4641886989984589e-02  5.6717647138736622e-02  1.5015908574687931e-03  2.7744643177169276e-01  2.3997316821545103e-01  2.8563315232444170e-01  2.8965994543136903e-01  3.4263014768615840e-01  3.2625217307482896e-01  3.0851924974798162e-01  3.3300759257960610e-01  1.1139513772526158e-01  1.0904998341012702e-01  2.0797470367793700e-01  1.4247975237018706e-01  1.1080975834368829e-01  7.2907520965089220e-02  8.8347107618926293e-02  4.3748873417447688e-02  1.7946966997942473e-02  6.6609852311018639e-02  8.6505805196273086e-02  1.1695379564885738e-02  1.6964332961682288e-02  9.0017216850340406e-02  3.5459808735430975e-02  2.6686255280468724e-01  2.3373552367863040e-01  2.3124960526849930e-01  7.9181002108880918e-02  1.3642187923109650e-02  3.4703107334109318e-01  5.5389593079811672e-02  7.5343232041622105e-02  1.0962651672938939e-01  1.6259964285477968e-01  2.7027320971640240e-01  6.3188622032371883e-02  6.4787686425874541e-02  2.8011282021320744e-01  7.5593324720793401e-02  4.8391148946328073e-02  5.1458398921129342e-02  2.1217247471600757e-02  5.5405186515184689e-02  5.6085121648469141e-02  3.6655055423547751e-02  2.2634574417184503e-02  7.5846379507877704e-02  3.6238954898708528e-02  2.7228007198906952e-02  3.9062494871075153e-02  6.4697390445024774e-02  2.0211373614934643e-02  5.0988574769306391e-02  4.4133867333886426e-02  9.2800253355684679e-03  7.9599723392005158e-03  2.8192983548179601e-01  2.2433264504285205e-01  9.5241888861722634e-02  9.4765423635017887e-02  6.0978592026386967e-02  6.9837687727003453e-02  2.0200578423224692e-02  2.0897711540256336e-02  8.5027151492629727e-03  8.1630980038671294e-02  1.1916644181696891e-02  2.8587432655017859e-02  2.9373539076632743e-01  2.6884857579911079e-02  3.7024502180698034e-02  2.6233495082174027e-02  1.7328275215652264e-02  3.2157293614541010e-01  2.3492191144333843e-03  1.0736581455197682e-01  4.6072296149764005e-02  2.6002971664543117e-01  1.1685818803736568e-01  4.5194074519074402e-02  4.1021930712308655e-02  2.1645545605702837e-02  3.4851985595600438e-01  4.7084445206119686e-02  9.5012591316387396e-02  4.4560113541577788e-02  9.6021344262586225e-02  2.8301247401759738e-01  3.3648536262922102e-01  4.8695530103921678e-02  6.2338670585354417e-02  2.8641477341038618e-01  3.1951465324931183e-01  2.3975108678796795e-02  1.0104668588307918e-01  1.9387219192339166e-02  7.1035126205121757e-02  8.5439316875531607e-02  4.6713428510806759e-02  2.8557574143631539e-02  7.3468521588335695e-02  3.3288192882878757e-02  3.2874485683986338e-01  3.0971391292388606e-01  7.7215644847402801e-02  6.8737147005942495e-02  7.1639789094118028e-02  7.5046289173026123e-02  3.9424977302421976e-02  5.2628612795479028e-02  1.2907324317051708e-01  2.9855428033921598e-02  2.6710094658225322e-02  7.7866700638700142e-03  5.0735748044966417e-02  1.6806516513906862e-02  3.8526117201763327e-01  3.2726728588606491e-01  4.8152229587307020e-02  2.2001504059507897e-02  9.7127786638919453e-02  3.0529679634238677e-01  6.6146632172383979e-02  4.7749565127080520e-02  2.8505760723714896e-01  2.5296637231276287e-01  1.5933081266981463e-02  3.2741370082925364e-01  2.7245423030246668e-01  6.2863814507139890e-02  8.5462536619313620e-02  1.1438454206920795e-01  1.9533894334201160e-01  6.8859064580793661e-02  2.6595858309825075e-02  9.1495251610678049e-02  7.2227922640327779e-03  3.3572797491215434e-01  2.7397024279909782e-02  7.1394999719230579e-02  4.1835002839479295e-02  2.3619712628264705e-02  1.6173707202984477e-09  2.7755774740827588e-01  9.7517889869908378e-02  9.8475602557300090e-02  8.6282570584872514e-02  9.3771579383042009e-02  4.0539591455279349e-02  2.8603877931877270e-01  2.8821643218362308e-01  2.6948742330743713e-03  1.0042088969200540e-02  2.7804692014523308e-01  2.5390136663057467e-01  3.4191961937682758e-01  2.2348019362788695e-02  5.8892630846041349e-02  5.4607703956961344e-02  5.3050816545347830e-02  5.1537266502438846e-02  5.5182079425321988e-02  2.4261284409009064e-02  8.2304382763691869e-02  3.3265258882243703e-01  5.9966453510810175e-02  5.6940823469777246e-02  1.0092029372215146e-01  1.9335861709813967e-01  2.8672566800839927e-01  2.8317532075354607e-01  2.3790576917689731e-02  3.2526074110123143e-01  1.6001883919798715e-01  1.3831782172361631e-01  1.1163153100196213e-01  8.2700440914799750e-02  7.9742021302407290e-02  7.8486974930479847e-02  4.3259348893367180e-09  2.9220642825049087e-01  2.6695383014428781e-01  6.9354617877206315e-02  6.7307926925543451e-02  9.7448784410519865e-02  6.7017408277264962e-02  3.4718856084131944e-02  3.0276744250107307e-01  2.7573482089413648e-01  1.4368355742039063e-01  7.9638459852821697e-02  2.1916746915914931e-01  8.6239176436851056e-02  1.4322242184849723e-02  5.2413131690990787e-02  4.1256298750776972e-02  1.8688572872769638e-01  1.8357078146359085e-01  1.2700679271067208e-01  3.1620195289217667e-02  4.7366447348802911e-03  5.1668400794553883e-03  2.1696996517618543e-03  2.4285005211556687e-01  2.5468980155347698e-01  2.4071430800621980e-02  1.5840685720223607e-02  1.2032538337410768e-01  9.7078182930898024e-02  6.5103520289095607e-02  3.3983437590562680e-02  3.1242220764145550e-02  3.3431507459979726e-01  4.4450276696200205e-02  7.4546293227107596e-02  7.8523690932231910e-02  3.2834264173614791e-01  6.2916339462139745e-02  2.7083217429419959e-01  1.0218045818883452e-01  2.8694071018317824e-01  7.2017306249633761e-02  6.6472331918572339e-02  1.0312889704017457e-01  2.7275748517916260e-01  1.0357885449984650e-01  8.8906158264638394e-02  1.6173707202984477e-09  8.8620342231636534e-02  9.0911143039963158e-02  4.5745156231549913e-02  4.3720862680657377e-02  2.6122408083779014e-01  2.5675016730301586e-01  2.0429237507599396e-02  1.1590540106956929e-01  1.8920323140782222e-02  8.1102614913031983e-03  4.9033794258417022e-02  4.6539069022315423e-02  4.5727590364735032e-02  2.3531357415630780e-01  6.2162666311802589e-02  9.5147956206186685e-02  7.3542942363014910e-02  4.2634487595792851e-02  8.2986657268882505e-02  8.0333016343711511e-02  8.4223637699495008e-02  2.8181656138223109e-02  3.0684049769675745e-02  2.0226971704570607e-02  1.8728562552393618e-02  3.1330305122316526e-01  3.2653047660943657e-01  3.4833651587566718e-02  3.3927297517715649e-01  2.7211607475360761e-01  3.2399109413063100e-02  9.0608498987920075e-02  8.8265896082991874e-02  8.9523004814083457e-02  7.4338692834114234e-02  9.4134567890803114e-02  5.6100848172911638e-02  2.4497903381531896e-01  2.3633566472806747e-02  6.8508521550551066e-02  8.2686293009920669e-02  2.8687070983646024e-01  1.2103331541474541e-01  3.7429479787199169e-02  7.1711108192512210e-02  2.8277531897931985e-01  2.6528581476413593e-01  4.4401665371064075e-02  9.5975701764405549e-02  6.1768574196670346e-02  4.3842072784859160e-02  5.9488340487242199e-02  3.2555195978140550e-01  3.3044753101471480e-02  2.8307939379562108e-01  4.8715184713005566e-02  2.8250963994632700e-01  5.1546594819394387e-03  2.9550566815303506e-02  3.7515856244124415e-02  2.8314925024561705e-01  6.4276553183894303e-02  5.4022678300730737e-02  5.3281245590966621e-02  5.1602193119201202e-02  3.1698402795079461e-01  1.0146272625381883e-01  8.7699456564053396e-02  1.67673938460241