<?xml version="1.0"?>
<VTKFile type="UnstructuredGrid"  version="0.1"  >
<UnstructuredGrid>
<Piece  NumberOfPoints="1404" NumberOfCells="2604">
<Points>
<DataArray  type="Float64"  NumberOfComponents="3"  format="ascii">0 0.41 0  0 0 0  2.2 0 0  2.2 0.41 0  0.2353553390593274 0.2353553390593274 0  0.25 0.2 0  0.2353553390593274 0.1646446609406726 0  0.2 0.15 0  0.1646446609406726 0.1646446609406726 0  0.15 0.2 0  0.1646446609406726 0.2353553390593274 0  0.2 0.25 0  0.6923879532511287 0.188268343236509 0  0.7 0.15 0  0.6923879532511287 0.1117316567634909 0  0.6707106781186547 0.07928932188134523 0  0.6382683432365089 0.05761204674887133 0  0.6 0.04999999999999999 0  0.5617316567634909 0.05761204674887134 0  0.5292893218813453 0.07928932188134524 0  0.5076120467488713 0.111731656763491 0  0.5 0.15 0  0.5076120467488713 0.188268343236509 0  0.5292893218813453 0.2207106781186547 0  0.561731656763491 0.2423879532511287 0  0.6 0.25 0  0.6382683432365089 0.2423879532511287 0  0.6707106781186547 0.2207106781186547 0  1.1 0 0  0 0.205 0  1.1 0.41 0  0.55 0 0  0.55 0.41 0  0.275 0 0  0.8250000000000001 0 0  0.275 0.41 0  0.8250000000000001 0.41 0  0.6875 0 0  0.61875 0 0  1.65 0.41 0  1.65 0 0  1.375 0 0  1.375 0.41 0  1.925 0 0  1.925 0.41 0  1.5125 0.205 0  1.7875 0.205 0  0.9625000000000001 0.205 0  1.2375 0.205 0  2.2 0.205 0  1.99375 0.2152743902439024 0  0.4125 0.41 0  2.0625 0 0  2.0625 0.41 0  2.2 0.3075 0  1.7875 0.41 0  1.375 0.1486128048780488 0  1.5125 0 0  1.7875 0 0  1.5125 0.41 0  0.9625000000000001 0.41 0  0.4125 0 0  0.1375 0 0  0.1375 0.41 0  0.6875 0.41 0  0.9625000000000001 0 0  1.2375 0 0  1.1 0.1486128048780488 0  1.2375 0.41 0  1.65 0.1486128048780487 0  0.823495464168302 0.2603780552348366 0  0.3738707794507017 0.2720196349488618 0  0.3662291281331582 0.1311456406657909 0  1.676715909090909 0.2793064024390244 0  1.126715909090909 0.2793064024390244 0  1.348284090909091 0.2793064024390244 0  0.8287581077665108 0.1302150898054257 0  1.894702181800738 0.1282910975492754 0  2.092797818199262 0.1282910975492754 0  1.85625 0.3075 0  0 0.3075 0  0 0.1025 0  2.099172119769978 0.25625 0  0.4752414543992246 0.3180372603390748 0  1.99375 0.08395950269330846 0  1.459960956013612 0.3075 0  1.569025960719943 0.2986889805672169 0  1.03125 0.3278689922742084 0  1.959375 0.3126371951219512 0  1.749222215368287 0.1025 0  1.275777784631713 0.1025 0  0.9228016959331474 0.3075 0  1.000777784631713 0.1025 0  2.2 0.1025 0  1.225938124459196 0.3075 0  1.550777784631713 0.1025 0  1.44375 0.07430640243902442 0  1.16875 0.07430640243902439 0  0.7562500000000001 0.3358727844323386 0  0.89375 0 0  1.899250267340833 0.2229966846119207 0  0.61875 0.41 0  1.766482954545455 0.2934032012195123 0  1.046078563095834 0.2389031808701145 0  1.421109702350723 0.2261157654379721 0  0.07567171807980319 0.25625 0  0.2511897295290552 0.3235829392832554 0  0.07655002503762308 0.1488653460959645 0  0.1377245246847496 0.3206030474919778 0  0.6694099692696568 0.3242771941727899 0  0.9168971191497528 0.1295727156104653 0  0.7562500000000001 0 0  2.118919042110979 0.3422084711244843 0  2.13125 0 0  0.06875000000000001 0 0  1.30625 0.41 0  1.597888256393107 0.2173787389261347 0  0.34375 0.41 0  0.2493272016354703 0.08091360081773515 0  0.5588896233436766 0.3264056208677571 0  1.829299675393195 0.07400700849299596 0  0.1334079128307869 0.08523463035786674 0  1.71875 0.41 0  0.06875000000000001 0.41 0  1.16875 0.41 0  2.038220665644273 0.332420740103091 0  0.8810647413215221 0.2027360103977071 0  0.34375 0 0  0.7453891198966415 0.2471459041008237 0  0.42112093004955 0.1988123139090554 0  0.8314023090855964 0.3351170841770613 0  0.89375 0.41 0  0.7906250000000001 0.06615386481594063 0  1.452769549894695 0.1548122580621249 0  1.369219062229598 0.07430640243902442 0  1.30625 0 0  1.07420695807087 0.07430640243902439 0  1.720943423819132 0.1714577452753128 0  1.157188124459196 0.205 0  1.304056576180868 0.1714577452753128 0  1.67579304192913 0.07430640243902437 0  1.209670467133757 0.136210026696477 0  0.4312800784902823 0.08036147352247747 0  0.8723959680194693 0.07066860609690805 0  1.025335513626278 0.1700681449722324 0  0.7945632284247136 0.1940204203251442 0  0.378125 0.3452261501101892 0  0.3307109909790086 0.2037165635083759 0  0.3009701032039409 0.2702970083403109 0  0.20625 0.41 0  1.58125 0 0  0.4812500000000001 0 0  0.9838963872396855 0.2722244191167347 0  0.06772484939107212 0.3260067317374387 0  0.20625 0 0  1.58125 0.41 0  1.631724228912893 0.3381867502687533 0  1.825608881788174 0.14499488549201 0  1.85625 0 0  1.44375 0 0  1.44375 0.41 0  1.85625 0.41 0  2.13125 0.41 0  0.7562500000000001 0.41 0  0.4812500000000001 0.41 0  1.16875 0 0  1.03125 0.41 0  1.03125 0 0  1.71875 0 0  1.99375 0 0  1.99375 0.41 0  0.9408708167433545 0.0651989315768642 0  1.340625 0.3489494290853124 0  1.134375 0.3489494290853123 0  1.700180620188976 0.3438659752031281 0  0.29668452290037 0.1318471691375986 0  0.3175441051360096 0.06496934809856265 0  0.06509151636162461 0.08140814015999148 0  2.135782184673599 0.07126652247502523 0  1.668441847249787 0.2129203728327609 0  1.295782514339747 0.2378437748815763 0  1.409375 0.3520314716057996 0  2.129248544730567 0.1906135162504124 0  2.060771381434487 0.1989445750470348 0  2.013252586573865 0.1496169464686054 0  1.942766402200229 0.1734448904596831 0  1.895522487186454 0.06076163953489683 0  2.069553871656643 0.06605731020975725 0  0.4670911801404742 0.2498408582391372 0  0.7622743084658112 0.1264100838268133 0  1.274680914880868 0.3520219391081363 0  0.3148669572599245 0.3331753056385887 0  1.614713220494657 0.09473434380863296 0  1.72990325744076 0.2380068107952482 0  1.356580098625191 0.2120393231351682 0  2.034370752044885 0.2668681600792073 0  1.51768709249349 0.3426260931494756 0  1.561883724969884 0.1650446847858835 0  1.197344062229598 0.2523725417393646 0  1.804085235518364 0.3468178408964637 0  1.817887819205233 0.2589243285818559 0  1.905897727272727 0.3485060975609756 0  0.7296439733931823 0.06337466644369745 0  0.4250935971865949 0.1394919578475796 0  0.3773030136511669 0.05130372097998036 0  1.192836486056382 0.3562350748565544 0  1.1029124365364 0.226143510831178 0  1.28257088594801 0.2944411014911587 0  0.1905185804731426 0.06029880676029167 0  1.474860187679412 0.2504218616229368 0  1.406767003493824 0.2829282258560709 0  0.5209826960981064 0.2830664557824064 0  0.5131119502780163 0.3617405848213254 0  0.1948220106098172 0.3081993407644811 0  1.845656689180403 0.1998310418452388 0  2.144958525570388 0.2909790873294231 0  2.2 0.15375 0  0.8833025251326762 0.2625402923007629 0  0.171875 0.3653875762360952 0  1.57794966442982 0.3540357145964566 0  0.446875 0.366068291212731 0  0.4272051715206439 0.2891929346190664 0  1.508991196088596 0.1421783375065625 0  1.50436820029908 0.06143401634903343 0  1.223857000523521 0.08235548624535324 0  0.6137904613287555 0.3066826366281556 0  1.153316824384777 0.1289850171317838 0  0.9751573703656133 0.327632618473408 0  2.148922302309752 0.1258841779285271 0  0.9281250000000001 0.3643758685795699 0  1.621993280276081 0.2841214267927899 0  1.550118654119087 0.2461998729100966 0  1.327182649291491 0.1216967252533594 0  0.9939955742738924 0.04663549843168518 0  1.753125 0.04556020050186112 0  1.271875 0.04556020050186116 0  0.9734326767716519 0.1506854560854393 0  0.103125 0.3675775577080512 0  1.94956388244759 0.1180512551534177 0  1.949997712993411 0.04965831614304109 0  0.717433898748555 0.295596016333797 0  1.771961817615021 0.1530278789497521 0  1.909246823951428 0.2812757146784527 0  0 0.35875 0  1.050632804931928 0.1226269704412814 0  0.05695108326502596 0.2024009637347154 0  1.948575539857022 0.2445328248721197 0  1.697271520964565 0.1233917627620729 0  1.065625 0.3689344961371042 0  1.085849084308977 0.3170853572226867 0  0.1015495998772944 0.04226029099983852 0  1.577403511714593 0.05463601888079143 0  1.751571320346033 0.3651102912045228 0  2.2 0.35875 0  0.7441773632462837 0.1786786606458751 0  0 0.05125 0  1.466879772203159 0.3611261772912453 0  0.6282230348858767 0.3577675483994025 0  1.990280163552011 0.3564754268533217 0  1.17471064520912 0.2990917256188288 0  0 0.25625 0  2.2 0.25625 0  2.2 0.05125 0  0 0.15375 0  1.853978576207987 0.35875 0  1.515638456102889 0.2882700110184686 0  2.150453692751374 0.2387066338105111 0  1.323782677156475 0.04897634338873398 0  1.409375 0.03715320121951221 0  1.406484531114799 0.1087852750766809 0  1.134375 0.03715320121951219 0  0.721875 0.3729363922161693 0  0.7941695928236929 0.3696489254637395 0  0.7934827162619036 0.3013409431456604 0  1.627401732573545 0.04552157221025036 0  0.9352049974617431 0.2507047965699472 0  0.8763260682738339 0.3611103317460093 0  2.045405893604797 0.1105340662939892 0  1.255408269734577 0.1577307500159216 0  2.028125 0.03707597992059326 0  1.003030137506755 0.3689344961371042 0  1.248258025468107 0.2565907092181813 0  1.203125 0.03661323374043041 0  0.4800125512335631 0.0549472816999725 0  2.072662025974815 0.2975086504196739 0  0.240625 0.3729825336867542 0  1.113252391110535 0.10238286244357 0  1.071052763974265 0.1885202618768825 0  0.8738809401657862 0.3106483608284829 0  0.6786819423003397 0.2677558482644021 0  1.887722846421017 0.1760882698830035 0  1.472640588990488 0.1118278026240017 0  0.5843750000000001 0.41 0  1.865937103925594 0.2604137786483804 0  1.463913572748262 0.2030442564990043 0  1.376426316059077 0.3186741374914345 0  0.1038643885363755 0.2162701735320032 0  0.1769473813227781 0.1070849728467114 0  0.458787839809176 0.171541653775316 0  0.240625 0 0  0.04179569703428024 0.2877217852556549 0  0.1258346557601885 0.2699740073054968 0  1.722140693354707 0.282908100935778 0  0.41206179117512 0.2448172567039922 0  0.3702471778075604 0.2265217604228704 0  0.3714881805374215 0.1786967818665642 0  1.77397096061971 0.2481483237422926 0  2.105123889160691 0.03743885948498647 0  1.001138337938679 0.229719337663998 0  1.051242910646791 0.2854826559431138 0  1.395420985247586 0.18
[...]
<PointData  Scalars="f_43"> 
<DataArray  type="Float64"  Name="f_43"  format="ascii">1.0790991218343841e-01  2.0431952744360810e-01  -1.6440646142569563e-11  -1.6052547455938184e-10  8.0350775362887109e-02  8.3529188592056713e-02  7.0136568988867970e-02  6.6414764059370565e-02  1.3683189133643581e-01  1.3834372443767184e-01  8.9226564176395684e-02  7.1104080159965347e-02  -4.8090478933182712e-03  -3.6074411599183072e-03  -7.4449665630698259e-03  -1.4377834882613466e-02  3.5286319122983273e-02  -6.3140865126096804e-03  -2.1085066620464027e-02  8.7344793980297292e-02  1.5899500423963725e-01  1.5171983957006024e-01  7.3903036070487121e-02  1.5273061378106816e-02  -1.9809728686691487e-02  -3.4082939111014614e-02  -2.4802304326896979e-02  -1.1150771723480874e-02  -1.2094407157294724e-03  1.1805500314317142e-01  2.3208458589998623e-03  5.7689623796995805e-02  4.7324281304829505e-02  1.0119436492171967e-01  -1.1066453312189631e-03  9.2749484977469557e-02  1.5555197855357053e-04  -3.2641639151012656e-03  3.3505810483842511e-03  5.0523633745622456e-03  7.8367340993114945e-03  8.3957370593693830e-03  1.7855398225423002e-03  2.9940832857608649e-03  3.8036653617272492e-03  4.5307326195950844e-03  5.0612403429448399e-03  1.7440686265184587e-03  -9.4162724374813973e-04  -1.2228107377871999e-10  2.5736867405046415e-03  8.0318997365223771e-02  1.5814502670043462e-03  1.8130768581457683e-03  -5.4511197104738010e-11  5.5783928918089537e-03  4.5730561279058732e-03  1.1890092898410580e-02  4.6057698998119888e-03  1.7461370384020522e-03  9.9961908712865454e-04  1.0637525299202109e-01  1.1384902491151035e-01  1.0688400254938225e-01  7.8090429371773431e-03  -5.0537441308716330e-05  -3.0306631084436685e-04  -5.0647733866693583e-04  2.8775243378639714e-03  6.8245970764813924e-03  1.0986682772091082e-03  9.1311964095748571e-02  9.9444221937669317e-02  5.3167922559950072e-03  1.6762448759130475e-03  2.6181864359245749e-03  8.3810245113762733e-04  3.4173565804832039e-03  1.2750827205218595e-03  4.7503006656258919e-03  1.0869358790214310e-01  1.2851580830993614e-01  1.2751331137981900e-03  7.1775932476708396e-02  2.3273179702290731e-03  8.9381199690795473e-04  2.4527250188451722e-03  2.1687245283341363e-03  3.2545515106784271e-03  5.2945908143819985e-03  -6.8592320774256334e-04  1.7878419646394270e-03  3.3675706921803872e-04  -7.0033932327557562e-11  3.1676585689733566e-03  1.0229589117538107e-02  1.0679561258559633e-02  -1.7484548737762221e-03  1.1620266188513216e-03  -2.1389159988299071e-04  3.8129127046407146e-03  2.3385289755151455e-02  5.6665584072008489e-03  1.3106927064865997e-03  3.1415423481293480e-03  1.1324309399745977e-01  9.0185845052035668e-02  1.2853039613409420e-01  1.0506474135504870e-01  1.6566222451022332e-03  9.9985847564519766e-04  -3.0642342074401548e-03  1.0492337850650226e-03  8.0829311513487556e-04  1.2791362670683198e-01  2.5469755152944052e-03  4.7411042177660243e-03  8.6700952697436842e-02  9.5146379515393495e-02  3.3971876387557512e-02  4.0406720103053689e-03  1.2080629711300130e-01  5.7855048583667912e-03  1.0829872694925687e-01  2.7570951842551079e-03  2.1420900062267666e-03  2.0812071829608100e-03  1.0272993082356210e-01  -2.9438947914262178e-03  9.6286079826155280e-02  1.1507439301639466e-03  3.6990121649688000e-04  -3.9019730754802904e-04  7.6060664222306852e-03  6.4483687345463885e-03  3.4611402906797877e-03  -5.3434152518779183e-04  5.6697404268075203e-03  -7.9465135181005294e-04  2.6185647542420362e-04  7.1009555470651180e-03  -2.4000230722702287e-03  1.1693305689382417e-01  2.9062175706322073e-04  8.7139950371909250e-04  2.2244589838281076e-04  8.5147927303321630e-02  8.8781755880185831e-02  8.7312395721786382e-02  1.0080482454544272e-01  1.0111694463145936e-02  1.0643392034898119e-01  1.9291678113833360e-03  1.0823579950926104e-01  1.0527708074272357e-01  3.3829756987182988e-03  4.3816771024574727e-03  4.2589333434362156e-03  3.7025716978324871e-03  1.1662379255879535e-02  1.1937460524712657e-03  4.7986133001580956e-03  8.8755150425666657e-04  1.6258575718351024e-03  6.8259769345112201e-02  -1.5650957036818431e-03  1.6962848584711361e-03  -4.6700298872475777e-04  5.9330615738606872e-03  2.3093861288994676e-03  2.7860415877719097e-03  2.6493595118817190e-04  2.6348661936131811e-03  3.0477156242175690e-03  5.5844755376599237e-03  8.7441142898424834e-02  1.0133482670791023e-01  1.2846519556706104e-01  7.5864046644417797e-04  5.6081533081339075e-03  1.5330635272213990e-03  1.5777493471624505e-03  8.6624857403035755e-04  1.7115840114507105e-03  2.2003552787307739e-03  3.0579367198293062e-03  3.2923734329412626e-03  1.5082749548114530e-03  8.0949616087431550e-02  -2.0371022518775226e-03  3.2511719159254043e-03  8.9034607414249053e-02  8.7221541932283025e-03  5.6264604661357270e-03  2.6663506797051238e-03  2.1365898395417581e-03  1.4098816929463793e-03  7.1533344739171910e-03  7.3929746550099450e-04  5.4163752674102096e-03  5.0549816316450575e-03  4.0838983931610869e-03  -2.1407790585967305e-03  1.1799069643349040e-01  1.0610532438830619e-01  3.3267681067092594e-03  4.3286861869960689e-04  3.0567743960939896e-03  1.0622975612944326e-01  1.8965168642244015e-03  1.7677743843888926e-03  4.5709018082509031e-02  5.8144463976845737e-02  9.2513196607478435e-02  4.3451098860004794e-03  6.9708910569532686e-04  -3.9513477804895706e-11  2.0341995317734642e-03  1.0325404939627424e-01  2.9425328987772513e-03  7.5149338345560618e-02  8.6539420969208955e-02  8.8591426417224690e-03  1.1678800388560151e-02  -1.7545469315725425e-03  -5.5582158445425221e-05  -1.7714294342580583e-03  1.8431880130871394e-03  6.1511181188616051e-04  1.2152633430169450e-03  4.1046342568454150e-03  2.8194403496066907e-03  1.9409097155267617e-03  1.3589337510471744e-05  5.2620983675747716e-03  7.1995243172947568e-04  9.9103419090359459e-04  1.0744008420760376e-01  2.8227978272788576e-03  2.7468217157168278e-03  -3.0654533452666769e-03  4.9843433570232630e-03  3.9220123360051715e-03  1.0774665111295219e-01  6.3143196865493866e-05  1.2071659307555048e-01  3.2471596088252375e-03  6.2720419305822665e-03  2.3659916807627886e-03  2.4457705935944764e-03  1.2263231930715364e-01  1.0267307723927805e-02  5.7358679280812433e-03  -1.6052547455938184e-10  -2.5581263577247170e-03  1.3723335088506888e-01  1.1446041372828951e-03  1.7019435782395884e-02  2.8361648646718892e-03  2.6018774871541992e-03  1.1212559067284952e-01  -1.2228107377871999e-10  -1.6440646142569563e-11  1.2375802047943867e-01  4.8219635944083987e-03  1.2253264795691072e-03  6.1870999382744748e-04  3.8189543463914648e-03  9.7956442232534566e-03  7.8783988824591127e-03  -1.3146069138627800e-03  4.2469046366975169e-03  1.2396080330308729e-03  5.5482656597052654e-04  8.6944768748339132e-03  2.1038478589477973e-03  9.8457276938371577e-04  1.7985122468194132e-03  -1.7226537416087791e-03  1.9495166435354273e-03  1.7891586015221835e-03  1.5059720781994165e-03  -1.2508628460656311e-03  1.0952192788051690e-01  1.6497502886308737e-03  9.5863645648456966e-02  -1.0622797198316877e-03  4.7993019722105383e-04  1.5282613227877550e-03  -1.0729778079428598e-02  3.7004368812735234e-03  1.0250928405119694e-02  3.4850098702803665e-02  4.4498015428091975e-03  4.5084959162839666e-03  2.1573766925822389e-03  1.2367268312451603e-01  1.0723431164581788e-01  1.1616416221135439e-01  1.0229595896991858e-01  1.0993719391370568e-01  1.0618455749575662e-01  5.7179711723299885e-03  9.1670243721512168e-02  9.1779715694110267e-02  9.2824856115395357e-02  5.4372742940908599e-03  1.1045843205005220e-03  1.6582513443177513e-03  1.8505758014681637e-03  4.2920081989720098e-03  2.2932812430247855e-03  8.2759732062594335e-02  7.7742266816744135e-03  1.2738378108464180e-01  1.3221011105149269e-01  1.5830373888014730e-03  1.3924802265178179e-03  9.2910617377652563e-02  5.2965301381197594e-03  2.7164995685903053e-03  8.9298117542091868e-02  8.4524779791170151e-02  8.5839277826765648e-02  4.7764872143622180e-04  1.3450810869254026e-03  1.6372013215385790e-03  1.5099892675580772e-03  5.8712265772608901e-04  4.2934279518538352e-03  9.7986657025301068e-03  4.5708608390386029e-03  3.9013118098282319e-02  1.4093782768205051e-01  1.0785596815939512e-01  2.5667837082538631e-03  2.5358146140444684e-03  -6.6762242148799293e-04  8.9499148602247794e-02  9.1405709120315995e-02  -1.7736353236497342e-03  1.2183024044465082e-02  5.9360473538431092e-03  2.4889011263375701e-03  -3.1401089568623388e-04  6.7994755868900818e-03  6.2785242237138996e-03  4.7976517890295826e-04  5.2288302558364287e-04  1.3057320059347483e-01  1.3336557126804799e-01  1.0793459549285116e-01  1.1371059483983287e-01  -5.7906398108073737e-04  -2.5090442150778791e-04  4.8086824120501396e-03  4.4867319829488828e-03  3.6122061379616883e-03  8.9061901178668385e-02  8.1857393256332400e-02  1.0123649865504313e-01  1.1150942340114416e-02  3.4849494171288339e-03  1.7290655972615416e-03  1.3766362777533742e-01  3.8825447328645916e-04  5.2345450730907029e-03  5.7715558952480903e-03  5.0964030052898270e-03  1.0955675242691769e-01  1.7103494792128566e-03  9.7091898293264700e-02  8.7099494091427435e-02  4.7542419411808123e-03  3.2563773528867779e-03  8.9779965450728333e-02  1.2834951822036952e-03  1.1708183957927575e-02  2.0386088057161925e-03  1.0302645937814374e-01  3.4497649313279715e-03  -8.4356196703599734e-04  1.0804133531834544e-01  1.0155092205227528e-01  7.8101977509515488e-02  -6.0995599224082010e-05  5.5213496337912090e-05  3.3822608479930783e-04  -1.0829085342607017e-03  4.7669343140736056e-04  1.2803974070782781e-01  3.0010818094314811e-03  8.0171083129442378e-02  9.6366800029766012e-02  -3.0844401168416254e-04  -4.2771612801286180e-03  2.3539950534937236e-03  5.3752521995698556e-02  4.3114366286014201e-03  9.6716175756599201e-02  3.7006243817734848e-03  3.3369693116041188e-03  2.9784418508060346e-03  8.7137525755884501e-02  1.0799998562623972e-02  1.2744555562077778e-03  6.0881041815017776e-03  -4.5352256879819616e-05  -9.0867528998091055e-04  7.4671281336797860e-03  7.4622236103723755e-03  8.5923712193306800e-02  1.1533516773513770e-01  2.1710083924651753e-03  6.7721970385773503e-03  8.7894320707184309e-02  1.7623782566781470e-03  1.2437351053472512e-01  4.7746033787354359e-03  -1.5102326534011967e-03  -3.1800949006003791e-03  2.3605272535130062e-02  6.6410774559384593e-03  -1.0590592327593677e-02  1.9130934628351576e-03  1.4101810217240452e-03  2.0534235354637189e-03  1.0812074394401029e-01  1.2025736491345605e-03  8.3428293785032604e-04  1.4055257579206886e-03  -8.4562148501583597e-05  1.1491280231361803e-02  -8.2146101661709973e-04  -1.1123042253320021e-03  -1.8773966300909843e-03  -1.7813163077289130e-04  5.4363026354783805e-03  -1.4633525531347803e-04  5.5593595577029765e-03  -3.6277390658442173e-04  5.2613631173096661e-03  6.7538452148273578e-03  6.1485009704058489e-03  2.1265898743450394e-03  2.6409559232905191e-03  8.3641354394745793e-02  -2.0521890926806880e-03  -2.2226729916116333e-03  3.4859457870772513e-03  5.1551403114430752e-03  8.1603927328486811e-04  5.2041946722018479e-04  4.3646737584667541e-03  6.2117683180653834e-03  1.9424863875080638e-03  8.0813541399287744e-02  8.3772025549978382e-02  1.9983162779167916e-03  4.1157671505733517e-03  8.8018315738717351e-02  1.7280710224171849e-03  2.1787841906747880e-03  1.7981357792539398e-03  1.1695175201573143e-03  2.2850570827343368e-03  -1.7656822247179415e-03  1.0321968063670230e-03  4.5305614507440802e-04  5.6795451036993367e-03  1.1084746238122584e-02  1.1014067507495763e-03  5.1865726060367607e-04  1.3041907148587453e-03  -1.5973373587724600e-04  1.3256139495821545e-01  1.0904835803180161e-01  9.0606485064935235e-03  2.7488867349601070e-03  1.0357929004215825e-01  -4.2706862194009853e-03  4.2184000388874240e-04  9.4951849177520801e-04  3.0134762183643424e-03  1.1903202244428607e-03  -7.6156952210555153e-04  3.8064821923618421e-03  4.6892844867773061e-03  -1.7887714079882762e-03  1.3849680564542320e-03  -7.1337828787365505e-03  2.0936049144446679e-02  2.8372035043775195e-04  1.9912097143199290e-03  1.7352619266310515e-03  3.0575331302083453e-03  2.5774680805713233e-03  2.8350637680644021e-03  2.2046602534904754e-03  2.0403941554730421e-03  2.7416946416520429e-03  9.4319498780463792e-02  1.0379629386494670e-01  5.3478980343865537e-03  9.4208277507228078e-04  2.8669303045523635e-03  4.0308257215477148e-03  -2.1279632613023766e-04  -4.3957199431943059e-04  1.9295079947474821e-03  1.5190790985511169e-03  5.5524819335920975e-03  2.4916938638513703e-03  2.0741013587659242e-03  3.2776694877867889e-04  3.1788356585346501e-03  2.7876843992117170e-03  2.7255470269836142e-03  9.9974278385481660e-02  1.0604990499198776e-01  -1.4415521027293893e-03  5.9601838624916198e-03  4.0916707327085395e-04  1.1977524441463762e-03  3.8135936758496806e-03  -1.5329785931910613e-03  1.0427465692031004e-02  1.2931745841250437e-03  5.7955188360799921e-03  2.0254715276611518e-03  5.2007480733742978e-03  6.5518692045204833e-04  1.4036649548559341e-03  4.4135392705243792e-04  1.0748134369683078e-01  7.5472218013875686e-02  1.0454925197924023e-01  9.6629514287632154e-02  1.1781008118999942e-01  1.0811864101649159e-01  1.0452320514850237e-01  1.0809696665027463e-01  1.6325166835624903e-04  5.6550213192972090e-04  5.8989800946856907e-02  1.4083700957326709e-02  2.4071207462444174e-03  -1.2504482454063054e-03  1.3414530375293703e-03  8.9571938887670170e-03  2.6540131662991817e-03  1.2637337169409313e-03  -1.9299525698706575e-04  1.9518497289123581e-03  3.2903678116482232e-03  4.8591124080429277e-05  5.6829503342647547e-03  9.1010855248915723e-02  7.1228240205632620e-02  4.9481132271728297e-02  -1.1067736986083427e-03  2.1806368720339309e-03  1.2515051939833297e-01  8.9395934111102509e-03  -1.8463436843232609e-03  1.1257584292521416e-03  2.8409857205797497e-02  9.0035580171054383e-02  2.3341065773399244e-03  2.7051941900345152e-03  8.1716093196587888e-02  3.2311352532701479e-03  1.6250008042836726e-03  9.2987184106116698e-04  3.1650184476595179e-03  1.1362917825129600e-03  1.3841197525581083e-03  5.6027038157509933e-03  4.2483849088872372e-03  1.2159943799738857e-03  5.6848644608646897e-03  4.0886815706718729e-03  5.2970232401905789e-03  1.1710902226803495e-03  3.7447185819029908e-03  1.4271338746664624e-03  9.6179469325398583e-03  1.5897334335538465e-03  1.3227907014236005e-03  1.0083937271461092e-01  6.7559902290551407e-02  1.7236040937910326e-03  -9.2501546175299018e-04  3.2415336191366959e-03  3.4512835056928247e-03  3.3880212660939053e-03  3.3067675761221378e-03  1.4837823389258723e-03  -4.6178341961665930e-04  2.0979623196001949e-03  5.3932075790195837e-03  1.0247097477248471e-01  5.0831878600875241e-03  5.5838313989899843e-03  4.6085955933253108e-03  2.6520151617784641e-03  1.0712258369238312e-01  3.9794534931586061e-04  -3.6186007793415835e-04  8.7581150815538213e-03  8.4327453140346120e-02  -2.1702706989343106e-02  9.7919556683442321e-03  8.0980204806001960e-03  4.0585212652454756e-03  1.2759097670400549e-01  2.7663786739628785e-03  -2.3717461963917584e-03  3.5938588435889120e-03  2.1595479597552622e-03  1.0663276205623536e-01  1.1322164854365807e-01  6.3050738633474400e-03  3.8612763386175340e-03  1.3207928417155321e-01  1.0764515598657501e-01  4.5531987357854313e-03  1.6304765229946780e-03  3.5549210479290400e-03  -1.8720485098683442e-03  2.0133343127237014e-03  1.0663139602984401e-02  4.9446703410158570e-03  3.2532020717442427e-03  5.6617454272005364e-03  1.1270293624275111e-01  9.9722265879660502e-02  -1.6337097103151597e-03  3.3576057098549928e-04  2.0370523987579266e-03  -2.3442254364368131e-04  6.0685365817607605e-03  1.1450638567634942e-02  1.0031332367233373e-02  5.4095061465813882e-03  4.9448221390630195e-03  1.3148159121564615e-03  1.1882932966924392e-02  3.0726250299361224e-03  1.5768378562329879e-01  1.0781915148064715e-01  8.6648136776946993e-03  3.2894399279065952e-03  -5.2304345149035408e-03  1.0126250196999841e-01  3.2616831071724081e-03  2.0741265847759659e-03  1.0946601083536327e-01  8.3416125808103550e-02  2.5088225059530372e-03  1.0981449069298521e-01  8.8738674015812397e-02  2.3733355381472974e-03  -8.8044727948639046e-03  1.5927544651513803e-02  5.0425978383167584e-02  -7.2691989572022089e-04  5.0105326985956117e-03  1.0403288186924290e-03  1.1697450929742832e-03  1.2045344181513044e-01  4.0652384778266208e-03  3.1884128648483715e-04  7.7077623840316901e-03  4.3823822944181598e-03  -1.2228107377871999e-10  9.0083509202927431e-02  1.8979671112422697e-03  2.1142262043188456e-03  -2.2989269946392720e-04  1.6070625440137891e-03  4.8304583616073206e-03  1.0952434086014562e-01  1.2470185050718870e-01  4.2167435095247609e-04  1.7402564335049818e-03  8.5765125367402203e-02  9.9445291287333190e-02  1.2185151239522043e-01  4.0053356833033389e-03  3.2172468005249909e-03  2.8702710641191420e-03  1.0793170746740926e-03  3.0278907383843026e-03  1.1102438587201306e-02  4.5933795178045161e-03  1.8958667452863582e-03  1.1357855664575393e-01  2.2959235213754858e-03  2.0904963122553074e-03  1.7640983059102073e-03  4.6559044194825240e-02  9.0319074803554528e-02  8.2174111362755126e-02  4.0023077661176616e-03  1.1203125204417105e-01  1.4564969801291364e-02  6.1892347163972211e-03  -4.9217698055274827e-03  8.8537291839326838e-04  8.9743668903173829e-04  -1.9640237352821501e-04  -7.0033932327557562e-11  1.3383918058116959e-01  8.7590586694458572e-02  2.7981965875476808e-03  2.1917572752579201e-03  1.8348901467702544e-03  2.9486649000669842e-03  5.7370453892916845e-03  1.0231405020686700e-01  9.2826997772297609e-02  1.6039955362154232e-02  2.7630713311312138e-03  6.3907670752885226e-02  -2.5872038708060021e-05  2.5880971343143931e-03  8.4788446915920381e-03  4.5356335170136262e-03  3.0783724495110333e-02  7.3342794737118961e-03  4.3500736973084014e-03  5.6561942210015198e-03  8.1149735141570795e-04  8.7993067212201095e-04  3.6723804996319600e-04  8.0035012210876999e-02  5.2953888485279217e-02  4.2155297134892130e-03  2.8631242755444144e-03  -5.8750874463713255e-03  8.3659320629306179e-04  2.5903979906513842e-03  5.6107621950688890e-03  4.8614931382622434e-03  1.1640487881075745e-01  8.8709952785579003e-03  -2.2193003730124235e-03  -1.1546689460505317e-03  1.0789557482894506e-01  1.9759134463503071e-03  8.3549006981280385e-02  -2.8255968941081865e-03  1.0294186587951909e-01  3.4403354383221126e-03  7.1941240927045531e-04  9.6291375712148131e-04  8.9171335914778743e-02  -1.0087334738044201e-03  -4.4870770960444617e-05  -1.2228107377871999e-10  1.9853227148976978e-03  1.9418611254733188e-03  2.7091761988097228e-03  3.7641580065114538e-03  9.0111735293942119e-02  8.7774334090009606e-02  3.1103823561228956e-03  -3.9906308308685918e-04  2.9849165482486104e-03  1.3805093049627701e-03  3.2844122214234980e-03  2.5285874836663137e-03  3.7419585231931647e-03  7.3840306557347996e-02  2.6302774156854352e-03  -1.8215224729956861e-03  -1.8441224505060998e-03  6.7747593585364089e-03  2.5279166535040788e-03  2.1797465538488190e-03  2.2462437814016853e-03  4.6892043427414123e-03  5.6112267704137861e-03  3.0159187404338807e-03  2.8879721642034849e-03  1.0022368357466738e-01  1.1006976799357232e-01  5.7441478913981651e-03  1.1695413219070672e-01  1.0609561503957840e-01  5.1215351754379645e-03  1.4121230052121139e-03  6.2988553262466589e-04  1.4003282782718709e-04  3.0505015147803184e-03  8.6448145430843587e-04  1.2735775766114976e-03  7.7553060046981745e-02  3.6895954938508287e-03  3.3133358210431277e-03  -5.7204006272490665e-04  8.1186078433020725e-02  -1.2259223903320691e-03  5.5799363520885915e-03  -2.2502565892440771e-03  1.1949478468225481e-01  1.0846551343666362e-01  3.2677563177698162e-03  2.0639411503116326e-03  3.4412465761174413e-03  9.4182502765883004e-03  8.0947443553603411e-03  1.0775516441362394e-01  5.3332768176612205e-03  9.2725420186272708e-02  1.8800389692904458e-03  6.9728690080824912e-02  8.0018761264605417e-04  4.5987122000081121e-03  5.4806098164939367e-03  1.0695133673225067e-01  2.9984000318221994e-03  1.2528848350530923e-03  9.6296194913738069e-04