<?xml version="1.0"?>
<VTKFile type="UnstructuredGrid"  version="0.1"  >
<UnstructuredGrid>
<Piece  NumberOfPoints="1404" NumberOfCells="2604">
<Points>
<DataArray  type="Float64"  NumberOfComponents="3"  format="ascii">0 0.41 0  0 0 0  2.2 0 0  2.2 0.41 0  0.2353553390593274 0.2353553390593274 0  0.25 0.2 0  0.2353553390593274 0.1646446609406726 0  0.2 0.15 0  0.1646446609406726 0.1646446609406726 0  0.15 0.2 0  0.1646446609406726 0.2353553390593274 0  0.2 0.25 0  0.6923879532511287 0.188268343236509 0  0.7 0.15 0  0.6923879532511287 0.1117316567634909 0  0.6707106781186547 0.07928932188134523 0  0.6382683432365089 0.05761204674887133 0  0.6 0.04999999999999999 0  0.5617316567634909 0.05761204674887134 0  0.5292893218813453 0.07928932188134524 0  0.5076120467488713 0.111731656763491 0  0.5 0.15 0  0.5076120467488713 0.188268343236509 0  0.5292893218813453 0.2207106781186547 0  0.561731656763491 0.2423879532511287 0  0.6 0.25 0  0.6382683432365089 0.2423879532511287 0  0.6707106781186547 0.2207106781186547 0  1.1 0 0  0 0.205 0  1.1 0.41 0  0.55 0 0  0.55 0.41 0  0.275 0 0  0.8250000000000001 0 0  0.275 0.41 0  0.8250000000000001 0.41 0  0.6875 0 0  0.61875 0 0  1.65 0.41 0  1.65 0 0  1.375 0 0  1.375 0.41 0  1.925 0 0  1.925 0.41 0  1.5125 0.205 0  1.7875 0.205 0  0.9625000000000001 0.205 0  1.2375 0.205 0  2.2 0.205 0  1.99375 0.2152743902439024 0  0.4125 0.41 0  2.0625 0 0  2.0625 0.41 0  2.2 0.3075 0  1.7875 0.41 0  1.375 0.1486128048780488 0  1.5125 0 0  1.7875 0 0  1.5125 0.41 0  0.9625000000000001 0.41 0  0.4125 0 0  0.1375 0 0  0.1375 0.41 0  0.6875 0.41 0  0.9625000000000001 0 0  1.2375 0 0  1.1 0.1486128048780488 0  1.2375 0.41 0  1.65 0.1486128048780487 0  0.823495464168302 0.2603780552348366 0  0.3738707794507017 0.2720196349488618 0  0.3662291281331582 0.1311456406657909 0  1.676715909090909 0.2793064024390244 0  1.126715909090909 0.2793064024390244 0  1.348284090909091 0.2793064024390244 0  0.8287581077665108 0.1302150898054257 0  1.894702181800738 0.1282910975492754 0  2.092797818199262 0.1282910975492754 0  1.85625 0.3075 0  0 0.3075 0  0 0.1025 0  2.099172119769978 0.25625 0  0.4752414543992246 0.3180372603390748 0  1.99375 0.08395950269330846 0  1.459960956013612 0.3075 0  1.569025960719943 0.2986889805672169 0  1.03125 0.3278689922742084 0  1.959375 0.3126371951219512 0  1.749222215368287 0.1025 0  1.275777784631713 0.1025 0  0.9228016959331474 0.3075 0  1.000777784631713 0.1025 0  2.2 0.1025 0  1.225938124459196 0.3075 0  1.550777784631713 0.1025 0  1.44375 0.07430640243902442 0  1.16875 0.07430640243902439 0  0.7562500000000001 0.3358727844323386 0  0.89375 0 0  1.899250267340833 0.2229966846119207 0  0.61875 0.41 0  1.766482954545455 0.2934032012195123 0  1.046078563095834 0.2389031808701145 0  1.421109702350723 0.2261157654379721 0  0.07567171807980319 0.25625 0  0.2511897295290552 0.3235829392832554 0  0.07655002503762308 0.1488653460959645 0  0.1377245246847496 0.3206030474919778 0  0.6694099692696568 0.3242771941727899 0  0.9168971191497528 0.1295727156104653 0  0.7562500000000001 0 0  2.118919042110979 0.3422084711244843 0  2.13125 0 0  0.06875000000000001 0 0  1.30625 0.41 0  1.597888256393107 0.2173787389261347 0  0.34375 0.41 0  0.2493272016354703 0.08091360081773515 0  0.5588896233436766 0.3264056208677571 0  1.829299675393195 0.07400700849299596 0  0.1334079128307869 0.08523463035786674 0  1.71875 0.41 0  0.06875000000000001 0.41 0  1.16875 0.41 0  2.038220665644273 0.332420740103091 0  0.8810647413215221 0.2027360103977071 0  0.34375 0 0  0.7453891198966415 0.2471459041008237 0  0.42112093004955 0.1988123139090554 0  0.8314023090855964 0.3351170841770613 0  0.89375 0.41 0  0.7906250000000001 0.06615386481594063 0  1.452769549894695 0.1548122580621249 0  1.369219062229598 0.07430640243902442 0  1.30625 0 0  1.07420695807087 0.07430640243902439 0  1.720943423819132 0.1714577452753128 0  1.157188124459196 0.205 0  1.304056576180868 0.1714577452753128 0  1.67579304192913 0.07430640243902437 0  1.209670467133757 0.136210026696477 0  0.4312800784902823 0.08036147352247747 0  0.8723959680194693 0.07066860609690805 0  1.025335513626278 0.1700681449722324 0  0.7945632284247136 0.1940204203251442 0  0.378125 0.3452261501101892 0  0.3307109909790086 0.2037165635083759 0  0.3009701032039409 0.2702970083403109 0  0.20625 0.41 0  1.58125 0 0  0.4812500000000001 0 0  0.9838963872396855 0.2722244191167347 0  0.06772484939107212 0.3260067317374387 0  0.20625 0 0  1.58125 0.41 0  1.631724228912893 0.3381867502687533 0  1.825608881788174 0.14499488549201 0  1.85625 0 0  1.44375 0 0  1.44375 0.41 0  1.85625 0.41 0  2.13125 0.41 0  0.7562500000000001 0.41 0  0.4812500000000001 0.41 0  1.16875 0 0  1.03125 0.41 0  1.03125 0 0  1.71875 0 0  1.99375 0 0  1.99375 0.41 0  0.9408708167433545 0.0651989315768642 0  1.340625 0.3489494290853124 0  1.134375 0.3489494290853123 0  1.700180620188976 0.3438659752031281 0  0.29668452290037 0.1318471691375986 0  0.3175441051360096 0.06496934809856265 0  0.06509151636162461 0.08140814015999148 0  2.135782184673599 0.07126652247502523 0  1.668441847249787 0.2129203728327609 0  1.295782514339747 0.2378437748815763 0  1.409375 0.3520314716057996 0  2.129248544730567 0.1906135162504124 0  2.060771381434487 0.1989445750470348 0  2.013252586573865 0.1496169464686054 0  1.942766402200229 0.1734448904596831 0  1.895522487186454 0.06076163953489683 0  2.069553871656643 0.06605731020975725 0  0.4670911801404742 0.2498408582391372 0  0.7622743084658112 0.1264100838268133 0  1.274680914880868 0.3520219391081363 0  0.3148669572599245 0.3331753056385887 0  1.614713220494657 0.09473434380863296 0  1.72990325744076 0.2380068107952482 0  1.356580098625191 0.2120393231351682 0  2.034370752044885 0.2668681600792073 0  1.51768709249349 0.3426260931494756 0  1.561883724969884 0.1650446847858835 0  1.197344062229598 0.2523725417393646 0  1.804085235518364 0.3468178408964637 0  1.817887819205233 0.2589243285818559 0  1.905897727272727 0.3485060975609756 0  0.7296439733931823 0.06337466644369745 0  0.4250935971865949 0.1394919578475796 0  0.3773030136511669 0.05130372097998036 0  1.192836486056382 0.3562350748565544 0  1.1029124365364 0.226143510831178 0  1.28257088594801 0.2944411014911587 0  0.1905185804731426 0.06029880676029167 0  1.474860187679412 0.2504218616229368 0  1.406767003493824 0.2829282258560709 0  0.5209826960981064 0.2830664557824064 0  0.5131119502780163 0.3617405848213254 0  0.1948220106098172 0.3081993407644811 0  1.845656689180403 0.1998310418452388 0  2.144958525570388 0.2909790873294231 0  2.2 0.15375 0  0.8833025251326762 0.2625402923007629 0  0.171875 0.3653875762360952 0  1.57794966442982 0.3540357145964566 0  0.446875 0.366068291212731 0  0.4272051715206439 0.2891929346190664 0  1.508991196088596 0.1421783375065625 0  1.50436820029908 0.06143401634903343 0  1.223857000523521 0.08235548624535324 0  0.6137904613287555 0.3066826366281556 0  1.153316824384777 0.1289850171317838 0  0.9751573703656133 0.327632618473408 0  2.148922302309752 0.1258841779285271 0  0.9281250000000001 0.3643758685795699 0  1.621993280276081 0.2841214267927899 0  1.550118654119087 0.2461998729100966 0  1.327182649291491 0.1216967252533594 0  0.9939955742738924 0.04663549843168518 0  1.753125 0.04556020050186112 0  1.271875 0.04556020050186116 0  0.9734326767716519 0.1506854560854393 0  0.103125 0.3675775577080512 0  1.94956388244759 0.1180512551534177 0  1.949997712993411 0.04965831614304109 0  0.717433898748555 0.295596016333797 0  1.771961817615021 0.1530278789497521 0  1.909246823951428 0.2812757146784527 0  0 0.35875 0  1.050632804931928 0.1226269704412814 0  0.05695108326502596 0.2024009637347154 0  1.948575539857022 0.2445328248721197 0  1.697271520964565 0.1233917627620729 0  1.065625 0.3689344961371042 0  1.085849084308977 0.3170853572226867 0  0.1015495998772944 0.04226029099983852 0  1.577403511714593 0.05463601888079143 0  1.751571320346033 0.3651102912045228 0  2.2 0.35875 0  0.7441773632462837 0.1786786606458751 0  0 0.05125 0  1.466879772203159 0.3611261772912453 0  0.6282230348858767 0.3577675483994025 0  1.990280163552011 0.3564754268533217 0  1.17471064520912 0.2990917256188288 0  0 0.25625 0  2.2 0.25625 0  2.2 0.05125 0  0 0.15375 0  1.853978576207987 0.35875 0  1.515638456102889 0.2882700110184686 0  2.150453692751374 0.2387066338105111 0  1.323782677156475 0.04897634338873398 0  1.409375 0.03715320121951221 0  1.406484531114799 0.1087852750766809 0  1.134375 0.03715320121951219 0  0.721875 0.3729363922161693 0  0.7941695928236929 0.3696489254637395 0  0.7934827162619036 0.3013409431456604 0  1.627401732573545 0.04552157221025036 0  0.9352049974617431 0.2507047965699472 0  0.8763260682738339 0.3611103317460093 0  2.045405893604797 0.1105340662939892 0  1.255408269734577 0.1577307500159216 0  2.028125 0.03707597992059326 0  1.003030137506755 0.3689344961371042 0  1.248258025468107 0.2565907092181813 0  1.203125 0.03661323374043041 0  0.4800125512335631 0.0549472816999725 0  2.072662025974815 0.2975086504196739 0  0.240625 0.3729825336867542 0  1.113252391110535 0.10238286244357 0  1.071052763974265 0.1885202618768825 0  0.8738809401657862 0.3106483608284829 0  0.6786819423003397 0.2677558482644021 0  1.887722846421017 0.1760882698830035 0  1.472640588990488 0.1118278026240017 0  0.5843750000000001 0.41 0  1.865937103925594 0.2604137786483804 0  1.463913572748262 0.2030442564990043 0  1.376426316059077 0.3186741374914345 0  0.1038643885363755 0.2162701735320032 0  0.1769473813227781 0.1070849728467114 0  0.458787839809176 0.171541653775316 0  0.240625 0 0  0.04179569703428024 0.2877217852556549 0  0.1258346557601885 0.2699740073054968 0  1.722140693354707 0.282908100935778 0  0.41206179117512 0.2448172567039922 0  0.3702471778075604 0.2265217604228704 0  0.3714881805374215 0.1786967818665642 0  1.77397096061971 0.2481483237422926 0  2.105123889160691 0.03743885948498647 0  1.001138337938679 0.229719337663998 0  1.051242910646791 0.2854826559431138 0  1.395420985247586 0.18
[...]
<PointData  Scalars="f_43"> 
<DataArray  type="Float64"  Name="f_43"  format="ascii">1.0620849359693547e-01  2.0246576884609949e-01  5.0929240651852935e-11  1.4368536881185989e-10  7.8750409543180674e-02  8.0525069080223083e-02  6.6151089185569750e-02  6.2451469175538989e-02  1.3430449938529279e-01  1.3699747753881800e-01  8.8109562556172097e-02  6.9822587840216596e-02  -6.9783844842824022e-03  -4.3629269977971787e-03  -6.7650520720188767e-03  -1.1313518910694173e-02  3.3447164878865621e-02  4.2997826276453517e-03  -5.5610003822141258e-03  8.7586578259953377e-02  1.4690084025285294e-01  1.4493379475995538e-01  7.5395185502401291e-02  1.5164372845866149e-02  -2.1145473562508361e-02  -3.7509496722271767e-02  -2.8861659034501382e-02  -1.3431514149139259e-02  1.7303235442358858e-02  1.1651873391260317e-01  1.1881082826756838e-02  5.9327999720250213e-02  4.7624890821640876e-02  9.9530574851189949e-02  3.4011036763692782e-03  9.2482366172655914e-02  3.7715355649505489e-03  -2.8798984532948441e-04  9.1031653248782873e-03  7.8596604220667193e-03  7.8842142374569105e-03  1.2126369257769195e-02  1.1497225491516831e-02  3.9379332946972764e-03  3.9388397611235075e-03  9.8415337374185303e-03  5.9046739470821549e-03  1.1766530042605677e-02  1.3749290968475901e-02  9.7062523376854557e-11  2.9522154116998350e-03  8.0515665537864198e-02  1.9664803839121369e-03  1.9669315143330669e-03  1.7124758038301459e-10  5.8995646349022579e-03  1.1958289160002349e-02  9.9237475734541333e-03  5.9111098383788615e-03  9.7622258076177464e-03  6.4217227903598326e-03  1.0416379242619640e-01  1.1192437885473361e-01  1.0502398457832002e-01  8.4757335033110743e-03  1.3919773434979573e-02  1.4739040807062734e-02  1.6654414626362132e-02  1.2705230314193718e-02  7.8849646515318644e-03  -4.0774075981939370e-03  9.0857902561305159e-02  9.7294630769478349e-02  7.4836622879969530e-03  1.3637204362526748e-02  1.1948460503014778e-02  1.3574619449877525e-03  4.3689589742159753e-03  1.5348066491246318e-03  4.9171282070046198e-03  1.0718069633750726e-01  1.2675232745664461e-01  1.4409856747544588e-03  7.1873207899068120e-02  2.9516860515191685e-03  1.0483458154606480e-02  8.9994592799298133e-03  1.0076623285647377e-02  3.4437458024668588e-03  6.4576110654313108e-03  1.3791651472825484e-02  6.4484265684724117e-03  1.5861637488710837e-02  1.0272892913991094e-10  1.3015499464876538e-02  9.3388582587184930e-03  1.0976160943012023e-02  1.6053275064827649e-02  2.5437494421896934e-03  8.3552897049181465e-03  4.3043358946553874e-03  2.3116829592050692e-02  6.2000267981606998e-03  1.4904944421451445e-02  1.1109337838932703e-02  1.1178513600223661e-01  8.8862585537236832e-02  1.2675225617373653e-01  1.0337269124299099e-01  3.4833362230923397e-04  8.1980747646788685e-03  -7.8833313893201005e-05  1.1600921025466987e-03  9.7559372269368297e-04  1.2603579306385729e-01  1.2216963442466578e-02  8.6148451527000621e-03  8.6469423096152173e-02  9.2919344902487835e-02  3.1944288782747181e-02  5.3100835560967912e-03  1.1867974021113853e-01  6.8841105336088270e-03  1.0643577343891926e-01  1.2748109384818086e-02  2.3169490415750416e-03  -1.0937790341050268e-03  1.0098110426001475e-01  -5.2327173401806627e-03  9.4543734562660228e-02  4.2125463639629077e-03  4.5246466720616071e-03  2.4460346769606075e-03  1.0765172989105646e-02  1.2198271109890805e-02  1.3366797159943575e-02  1.7297756376011365e-02  6.8603972903098229e-03  1.4903579590530378e-02  1.2976551219895677e-02  7.5174479107296471e-03  1.4813658133400409e-02  1.1323047072233050e-01  6.2070215888874085e-03  1.6560317283509405e-02  -4.9663239287612727e-03  8.5303689659519899e-02  8.5195407851643160e-02  8.5476709012314939e-02  9.9853161421191577e-02  8.8973906954780274e-03  1.0432349736316092e-01  1.1179539676105897e-02  1.0665225456108643e-01  1.0341545110370137e-01  8.8155131265910142e-03  8.1167074576605717e-03  5.3603594521539708e-03  4.9193217127761315e-03  1.0994200939303604e-02  1.0668088987478629e-02  4.9166880177000990e-03  9.7785188094493274e-04  3.9694733313559620e-03  6.9057580564250820e-02  1.6185474311599890e-02  9.5070659834556280e-03  1.7044951838835996e-02  6.8926885837454739e-03  2.9478390580591073e-03  2.9516724699953662e-03  1.1741561033267444e-02  1.1900058346576401e-02  1.2625661487257800e-02  7.1470980856115137e-03  8.4100921624201283e-02  9.9789310963287470e-02  1.2660869713248946e-01  9.1893593218039219e-04  7.6090349474231250e-03  1.2753111267858408e-02  1.1100954100911735e-02  1.0108536533829642e-03  1.9907677878467402e-03  2.6711077046666209e-03  3.6794353916336383e-03  4.3562657673971118e-03  1.8664454069280221e-03  7.8264940331301588e-02  -2.0626436909767566e-03  1.2508463404108378e-02  8.8301835853253408e-02  8.4027250565921578e-03  6.7275512614921179e-03  1.2044307787711711e-02  2.3708382373037727e-03  9.6940844458822256e-03  9.1534077029588132e-03  1.3740420089643249e-02  5.6648023615550724e-03  5.4660897474068746e-03  4.2102259876333195e-03  -2.1437315513186638e-04  1.1581118805663483e-01  1.0408343793480052e-01  1.2869711065818742e-02  1.5169488145667027e-02  1.2618627313988067e-02  1.0415444260883541e-01  1.0333747549180343e-02  1.1205181663294090e-02  4.2237259522181499e-02  5.8550782787850315e-02  9.0997212387198587e-02  5.0706233728184261e-03  7.8604452607734842e-04  -1.8084135296538127e-10  1.9190369476098275e-03  1.0163916699292704e-01  8.8656029641495469e-03  7.5647014252480632e-02  8.6785741262346922e-02  9.9377321370848672e-03  1.0044567256533864e-02  1.4893595279704368e-02  -3.1228773290213601e-03  1.5945215813798125e-02  7.6181125335491240e-03  7.3135275389122365e-04  5.6210501938806397e-03  8.2582361861543007e-03  9.2834235861119462e-03  1.2808486651036004e-02  1.5409179473417935e-02  6.4028329151754092e-03  1.4018444954294470e-02  1.3755692630476220e-02  1.0558400799088929e-01  3.5833063247502749e-03  3.5763512346738114e-03  -4.7430863941271082e-03  6.1301745206441141e-03  4.1596886148860162e-03  1.0612071581831461e-01  1.7152184662412428e-02  1.1915581447701951e-01  3.5971349689660594e-03  7.2020380898222755e-03  1.0892992864144409e-02  1.2272977089566242e-02  1.2070478629052045e-01  8.9549136277829490e-03  6.4142170915943630e-03  1.4368536881185989e-10  -4.3294025916950900e-03  1.3540431502073522e-01  1.0366933597516257e-02  1.6363751708946671e-02  3.0019375532221193e-03  1.3303835730456470e-02  1.1065157556008370e-01  9.7062523376854557e-11  5.0929240651852935e-11  1.2210319224287361e-01  4.9506038771390069e-03  9.7431202100985853e-03  7.0872046151347471e-04  1.3025789608742205e-02  1.1549951966260314e-02  1.1537912813557323e-02  1.6789184541147358e-02  6.0508765840152686e-03  4.7529315979411542e-03  -4.7320227931150691e-04  8.2214927322417728e-03  8.0999888489772156e-03  5.2037567527315025e-03  2.2123878158324425e-03  1.3842461812794325e-02  2.4625046491150286e-03  8.1465088547715211e-03  1.3188722088991739e-02  1.5443920916012099e-02  1.0635391985380951e-01  1.8233043146640346e-03  9.5094924460841168e-02  1.6867901394090917e-02  1.6420031971290713e-02  4.3879561272936289e-03  -1.3485991634971845e-02  4.4684387487689608e-03  1.0504348977601649e-02  3.4700438038396501e-02  4.7794137731390178e-03  1.0539933763190111e-02  1.1530246989716631e-02  1.2217119666004904e-01  1.0463572053781313e-01  1.1375372744115418e-01  1.0053349647571383e-01  1.0846174975716354e-01  1.0480786163840415e-01  6.8349055373950144e-03  9.0234471506075081e-02  8.9206873682640242e-02  8.9686896190745644e-02  6.0968481477497250e-03  1.3578322201511465e-03  1.4297586887529320e-02  1.2650288227399682e-02  1.1549509612036589e-02  2.4627810832414795e-03  8.1316455880238336e-02  8.5643330846416985e-03  1.2562500448346312e-01  1.3010865515301001e-01  -3.2851603074794209e-03  2.5789341145912390e-03  9.1519167651562913e-02  5.5495095386640042e-03  2.9981561861721199e-03  8.5498788154123984e-02  8.1200370139121111e-02  8.3197246341439879e-02  5.3466623294777841e-04  1.4783007658466744e-03  1.7827611532253284e-03  8.4373788428074737e-03  1.2867035947570856e-02  8.3450298427929573e-03  1.0242997419081556e-02  5.8226934191716847e-03  3.8794698255065485e-02  1.3392127419595479e-01  1.0535988161120405e-01  2.7758662882426937e-03  1.1590402836453708e-02  -3.9869218352942045e-03  8.9267377906905504e-02  9.0933502384306808e-02  1.4589680348356360e-02  1.0448803823138772e-02  8.1430553855059307e-03  9.2970137341004573e-03  1.6984677255942573e-02  7.4031339087443620e-03  7.0469174761289563e-03  5.8123322148486117e-04  5.8052317278834917e-04  1.2871450520158906e-01  1.3150374637098616e-01  1.0625187825091557e-01  1.1174531767531531e-01  5.6482225540009758e-03  4.1431219697187485e-03  8.0835303575621780e-03  5.7670427789900487e-03  4.7520312684336714e-03  8.8756066150313839e-02  7.8419309329314388e-02  9.9687451397041660e-02  9.4125561546570171e-03  3.6278858005734690e-03  -5.4790716813965003e-03  1.3588701257329686e-01  3.8567787878503674e-03  5.4131286343537827e-03  6.6356298572157251e-03  7.6624459125190511e-03  1.0734762484086728e-01  2.0508246577055425e-03  9.4911072743706651e-02  8.6940530591236270e-02  9.2547575372719688e-03  1.2728985801736795e-02  8.7722895243264709e-02  1.5149820669103698e-03  1.0606658559267602e-02  5.6113451547727365e-03  1.0127640046269699e-01  8.7154661799579147e-03  1.8791120561140690e-03  1.0650284321150892e-01  9.9891495901784019e-02  7.8113684096103336e-02  1.1234656556570756e-02  8.8724792786630674e-03  1.4425216073126400e-02  1.5773021575928147e-02  5.5979568407795973e-04  1.2611920524317669e-01  1.2165491594076186e-02  8.0877347851947737e-02  9.5068495815778864e-02  -5.7629925459663119e-03  -5.2063333328629599e-03  3.0158447167585611e-03  5.2682585886089019e-02  4.4264071315747687e-03  9.5254832509732115e-02  4.9045710401938291e-03  4.4268316721110430e-03  3.8840032972586695e-03  8.4673982994487862e-02  9.9295631154372611e-03  1.4225880813991466e-02  6.9826788104156998e-03  1.7009163008510457e-02  1.7253934365614027e-02  7.6655604028861603e-03  7.8469722364557307e-03  8.2792441756047136e-02  1.1384025932487550e-01  2.3333112731986558e-03  1.1354058920631779e-02  8.8411471942314884e-02  2.2045326091160973e-03  1.2271039975810062e-01  6.0391056782347005e-03  -3.9938632763453748e-03  -4.1397220961065763e-04  2.2083876885915919e-02  1.0199435894689520e-02  -1.3660974693783839e-02  2.3941572338167651e-03  1.0732516398888036e-02  9.8077968097057266e-03  1.0655792252442192e-01  8.1413319468829118e-04  4.8597827960782493e-03  6.5616077409244612e-03  -1.9028605687580601e-03  9.6657425107728959e-03  1.7462525537740147e-02  1.7160776933319005e-03  1.6506911089269253e-03  1.6488486908088139e-03  6.4790873844942469e-03  1.3201206266928662e-02  6.6958324879754557e-03  1.3338868427720356e-02  1.2133417622883091e-02  1.2377904418257519e-02  7.3638837784565361e-03  1.2498931343438371e-02  3.2364643319622117e-03  8.1642648248621705e-02  1.4277126951108327e-02  1.5406604002770623e-02  8.5322008486455794e-03  7.6101560676884138e-03  4.9361595031160608e-03  8.7134092753585763e-03  8.1774162769398494e-03  8.6634339160735520e-03  9.5271107425533696e-03  8.0992403875011915e-02  8.3665550286542281e-02  9.9486640061377096e-03  5.4157259474746982e-03  8.6535990246869809e-02  1.9606850822870558e-03  2.4733512897704836e-03  1.3192783432978882e-02  1.3061169851658388e-03  5.0408300640660325e-03  -4.6150673068850187e-03  1.1860714495958589e-03  5.2534424199810088e-04  6.1234931660833552e-03  9.4578520629467304e-03  1.6140280800910223e-02  1.6486101659037689e-02  1.4878576846297916e-02  6.3014708851845827e-03  1.3074141430752831e-01  1.0713156667097483e-01  1.1550830299823209e-02  1.1972259007084648e-02  1.0186853932729370e-01  -4.6831276843929759e-03  5.0290326485485524e-04  1.1435215730206038e-03  3.4769977420114899e-03  1.3074567337789363e-03  1.4093965050428040e-02  4.8900398128021126e-03  5.6950855817492789e-03  -1.5838603660706029e-04  5.5391266803577061e-03  -8.5393109374776750e-03  2.5974062471930997e-02  1.4360964468595297e-02  8.6149759689203922e-03  1.3051029515353722e-02  1.2701611201193948e-02  1.2476859520018813e-02  1.2196740830468244e-02  1.1881560626079465e-02  1.1511963795818125e-02  1.3071986895266377e-02  9.2107727555085048e-02  1.0213699032266506e-01  1.1026934582666294e-02  1.1184958232244939e-03  1.2808999613633864e-02  4.9495631484611988e-03  1.6069482536118389e-02  1.4710666108260499e-02  1.1731218615777800e-02  1.1106775023575223e-02  7.3658649529801919e-03  2.9585668155483105e-03  2.4461945573758491e-03  1.6955810924861453e-02  3.4306290488430777e-03  1.2491991456356346e-02  1.2172778007039623e-02  9.8809924968744509e-02  1.0421565077381560e-01  1.6148937233052590e-02  1.2728382701860417e-02  4.9628523341755011e-04  1.4632959809703712e-03  5.3250320592466722e-03  1.6855732831301300e-02  1.1554807958725407e-02  1.0215673852387430e-02  6.3928688163622299e-03  1.0884593974894967e-02  6.4015178044044543e-03  5.2312150815587112e-03  1.1093257062661292e-02  4.9358890124828986e-04  1.0526811461665131e-01  7.6061419620996107e-02  1.0254930270363292e-01  9.6137196848543965e-02  1.1590493093789646e-01  1.0614653176114387e-01  1.0302281509316462e-01  1.0637559311061555e-01  4.0678371056182498e-03  3.6551108834131647e-03  5.9702795173900987e-02  1.4058694031020452e-02  6.4502182968389239e-03  1.5471241244649311e-02  7.9148354554866539e-03  8.3953050971604885e-03  3.4421495816443362e-03  1.4032463196548006e-02  1.5878841420467280e-02  2.4602986695897986e-03  3.4386832721719834e-03  1.2260464944736300e-02  6.8990040231758070e-03  8.8932195714093748e-02  6.9114183600867962e-02  4.6258148991080571e-02  1.7000007850290672e-02  2.7087031556382556e-03  1.2318582362275977e-01  1.1011156244425628e-02  1.5292447107902594e-02  3.3593091836192149e-03  2.8210653952322012e-02  8.9023346053685795e-02  1.2236368838595005e-02  1.2391386429341995e-02  7.8328272476687208e-02  1.2978191557677630e-02  9.4228590389236096e-03  1.0023446841855672e-02  4.1814090118601896e-03  1.0711330845898768e-02  1.0878049302142935e-02  7.1341953121750396e-03  4.4016930700141411e-03  1.3797096948543761e-02  7.0634972257391411e-03  5.3143716999836371e-03  7.6082616869926891e-03  1.2670108305420329e-02  3.9205081368364376e-03  9.9909398116307356e-03  8.6457445204132909e-03  1.9822597694537257e-03  1.6137592010762758e-03  9.9282013757178447e-02  6.8206858949439828e-02  2.9091688405839503e-03  2.5031847993941727e-03  1.2044683709086275e-02  1.2756426663607457e-02  3.9438539594874077e-03  4.0868209073410960e-03  1.6302505024399963e-03  1.7109937895883991e-02  2.2942117622202635e-03  5.6569223552178386e-03  1.0095503882756511e-01  5.2371901891297180e-03  7.1854159240079809e-03  5.1124389247651104e-03  3.4178079157553371e-03  1.0539256120390038e-01  4.5274286874218893e-04  -4.4444768937535063e-03  9.0522894337356514e-03  8.4276671346244628e-02  -2.5523993049679537e-02  8.8924208915253360e-03  7.9988292522216748e-03  4.1810386565733146e-03  1.2591914310119248e-01  9.0539067765450891e-03  4.2336718090890967e-04  8.6162642565534037e-03  3.6660427038912929e-03  1.0435122956494393e-01  1.1192339899634556e-01  9.5624538106500057e-03  1.2614285559137892e-02  1.2456893815537412e-01  1.0579253426101720e-01  4.6734487063653744e-03  1.2082906179881135e-03  3.7062056073307427e-03  1.4153170969548280e-02  9.5722785903371438e-03  9.1518799665861496e-03  5.5656561648493186e-03  1.3048920026753664e-02  6.4805988598325972e-03  1.1052058471185613e-01  9.7557782613030594e-02  1.6364968221216952e-02  1.3277534519540059e-02  1.3293293691094330e-02  1.4267752641926697e-02  7.6960506966992064e-03  1.0496385085931884e-02  1.7974264757140927e-02  5.8158437653007674e-03  5.2018004259287163e-03  1.5256449960744602e-03  1.0149549454588461e-02  3.2291015195962010e-03  1.5583839866757224e-01  1.0614240368497162e-01  9.4786290296837682e-03  4.3132211383456430e-03  -4.6198005539418822e-03  9.9594628291024181e-02  1.2425311227799296e-02  9.2714409693345941e-03  1.0688325697855304e-01  8.3934265438446704e-02  3.1436633072304994e-03  1.0834252921287922e-01  8.7477481458293066e-02  1.1830961712429703e-02  -6.3705298323697077e-03  1.9379315662189138e-02  5.0747428208755260e-02  1.4261346500028773e-02  5.1629175350984061e-03  1.0864771995105967e-02  1.4325700329059416e-03  1.1887831426350243e-01  5.3363842817733221e-03  1.3607960035919754e-02  8.1842204668215145e-03  4.5988945514252762e-03  9.7062523376854557e-11  8.9123702015788148e-02  4.9954742419239338e-03  -1.5121155188453903e-03  1.6364998870226074e-02  6.3313662711029749e-03  7.8879364031707519e-03  1.0767148710413536e-01  1.2084070560372881e-01  5.0734327339697254e-04  1.9437667567316751e-03  8.4192858163270365e-02  9.7685000186742935e-02  1.1931913580349505e-01  4.3510989091507506e-03  1.1527034803164009e-02  1.0683433108218586e-02  1.0337455206017615e-02  1.0087961778932550e-02  1.1063971604260902e-02  4.7188130311393911e-03  1.3073073052672270e-02  1.1216778895759376e-01  1.1586308944402797e-02  1.1087049921107379e-02  -2.5475766219338583e-03  4.6171807283454783e-02  8.8870455252241354e-02  8.0897533465243601e-02  4.6390898421622105e-03  1.1056041623038089e-01  1.1497020014234478e-02  4.2998398178419233e-03  -6.8855704811627552e-03  1.5269506285155349e-02  1.4323770291528587e-02  1.5105056697183147e-02  1.0272892913991094e-10  1.2949153152796875e-01  8.7302947780763640e-02  1.2943809584174482e-02  1.2818838589612932e-02  -1.0802144048805335e-03  1.2427529412142051e-02  6.7340789579366017e-03  1.0069122774038994e-01  9.0118290460208680e-02  1.6152632204097263e-02  1.2609432109830466e-02  6.4024085656352397e-02  1.6447423854564033e-02  2.7516853844303068e-03  1.0354206167673716e-02  8.0086221507564125e-03  2.7654749986099198e-02  4.3256725843233892e-03  4.5545441446003991e-03  6.1475133388036035e-03  9.0568263685959684e-04  9.9797092218823825e-04  4.1525672666135741e-04  7.9852559196057910e-02  5.1751955736671719e-02  4.6904784136963858e-03  3.0454868060630982e-03  -8.1046862996086051e-03  5.1259298600493082e-03  1.3506360076220648e-02  6.6498596315878733e-03  6.0998224428702678e-03  1.1490985181424657e-01  8.7236802219335646e-03  1.5379619663657739e-02  1.6281704345290693e-02  1.0609166801262897e-01  1.2388709615979262e-02  8.1246554409837940e-02  -3.8503510769829197e-03  1.0109042609227772e-01  1.2872705995703065e-02  1.3703209372247222e-02  -6.1069442710185639e-03  8.8841884130923185e-02  -3.7538238614045847e-03  1.4698209274821392e-02  9.7062523376854557e-11  8.6931727718236249e-03  8.9829518178965607e-03  8.8977785715059210e-03  8.4604200873122058e-03  9.0220050047980505e-02  8.6545737396858752e-02  4.0011026356580985e-03  -7.3715876700037512e-04  3.7076662403062264e-03  1.5786369237769475e-03  9.5933271055107985e-03  9.0710026869705775e-03  8.9301860506874314e-03  7.4389169323521451e-02  1.1859689227178246e-02  9.8473810313893487e-04  1.5479361546862684e-02  8.3411771124258238e-03  1.1375121134197225e-02  1.3076774275766831e-02  1.1532608502414877e-02  5.4942116703492394e-03  6.0181196068604869e-03  3.9652505272061486e-03  3.7830501163357831e-03  9.7697689415344069e-02  1.0858839146713871e-01  6.7582346948719032e-03  1.1504773812903371e-01  1.0396891441233835e-01  6.3153525904241963e-03  1.2296021388431009e-02  1.5231023194049443e-02  1.3666802399362552e-02  1.2781431015141738e-02  6.7563698346605697e-03  1.0880260613296557e-02  7.7882108117831472e-02  4.6166827302109893e-03  1.2722415745507424e-02  1.7303634092129191e-02  7.9925148736946117e-02  -2.2522133568461736e-03  7.2918247619188506e-03  1.4825450658793296e-02  1.1499963828572599e-01  1.0431827238317577e-01  8.6395009823403320e-03  5.5460426069911129e-03  1.2356530744371220e-02  8.5825652461944350e-03  1.1954173506295922e-02  1.0603003915379973e-01  6.4412223312642850e-03  9.1854706028582450e-02  9.5039204355051882e-03  6.5685659309147063e-02  9.7361293368539701e-04  5.7630694502601625e-03  7.2782963740612638e-03  1.0573297375277935e-01  1.2171395343910324e-02  1.0441246449988962e-02  1.0355210652199248e-02  1.0027542034574037e-02  1.0411057504522779e-01  -5.60004173918778