<?xml version="1.0"?>
<VTKFile type="UnstructuredGrid"  version="0.1"  >
<UnstructuredGrid>
<Piece  NumberOfPoints="1404" NumberOfCells="2604">
<Points>
<DataArray  type="Float64"  NumberOfComponents="3"  format="ascii">0 0.41 0  0 0 0  2.2 0 0  2.2 0.41 0  0.2353553390593274 0.2353553390593274 0  0.25 0.2 0  0.2353553390593274 0.1646446609406726 0  0.2 0.15 0  0.1646446609406726 0.1646446609406726 0  0.15 0.2 0  0.1646446609406726 0.2353553390593274 0  0.2 0.25 0  0.6923879532511287 0.188268343236509 0  0.7 0.15 0  0.6923879532511287 0.1117316567634909 0  0.6707106781186547 0.07928932188134523 0  0.6382683432365089 0.05761204674887133 0  0.6 0.04999999999999999 0  0.5617316567634909 0.05761204674887134 0  0.5292893218813453 0.07928932188134524 0  0.5076120467488713 0.111731656763491 0  0.5 0.15 0  0.5076120467488713 0.188268343236509 0  0.5292893218813453 0.2207106781186547 0  0.561731656763491 0.2423879532511287 0  0.6 0.25 0  0.6382683432365089 0.2423879532511287 0  0.6707106781186547 0.2207106781186547 0  1.1 0 0  0 0.205 0  1.1 0.41 0  0.55 0 0  0.55 0.41 0  0.275 0 0  0.8250000000000001 0 0  0.275 0.41 0  0.8250000000000001 0.41 0  0.6875 0 0  0.61875 0 0  1.65 0.41 0  1.65 0 0  1.375 0 0  1.375 0.41 0  1.925 0 0  1.925 0.41 0  1.5125 0.205 0  1.7875 0.205 0  0.9625000000000001 0.205 0  1.2375 0.205 0  2.2 0.205 0  1.99375 0.2152743902439024 0  0.4125 0.41 0  2.0625 0 0  2.0625 0.41 0  2.2 0.3075 0  1.7875 0.41 0  1.375 0.1486128048780488 0  1.5125 0 0  1.7875 0 0  1.5125 0.41 0  0.9625000000000001 0.41 0  0.4125 0 0  0.1375 0 0  0.1375 0.41 0  0.6875 0.41 0  0.9625000000000001 0 0  1.2375 0 0  1.1 0.1486128048780488 0  1.2375 0.41 0  1.65 0.1486128048780487 0  0.823495464168302 0.2603780552348366 0  0.3738707794507017 0.2720196349488618 0  0.3662291281331582 0.1311456406657909 0  1.676715909090909 0.2793064024390244 0  1.126715909090909 0.2793064024390244 0  1.348284090909091 0.2793064024390244 0  0.8287581077665108 0.1302150898054257 0  1.894702181800738 0.1282910975492754 0  2.092797818199262 0.1282910975492754 0  1.85625 0.3075 0  0 0.3075 0  0 0.1025 0  2.099172119769978 0.25625 0  0.4752414543992246 0.3180372603390748 0  1.99375 0.08395950269330846 0  1.459960956013612 0.3075 0  1.569025960719943 0.2986889805672169 0  1.03125 0.3278689922742084 0  1.959375 0.3126371951219512 0  1.749222215368287 0.1025 0  1.275777784631713 0.1025 0  0.9228016959331474 0.3075 0  1.000777784631713 0.1025 0  2.2 0.1025 0  1.225938124459196 0.3075 0  1.550777784631713 0.1025 0  1.44375 0.07430640243902442 0  1.16875 0.07430640243902439 0  0.7562500000000001 0.3358727844323386 0  0.89375 0 0  1.899250267340833 0.2229966846119207 0  0.61875 0.41 0  1.766482954545455 0.2934032012195123 0  1.046078563095834 0.2389031808701145 0  1.421109702350723 0.2261157654379721 0  0.07567171807980319 0.25625 0  0.2511897295290552 0.3235829392832554 0  0.07655002503762308 0.1488653460959645 0  0.1377245246847496 0.3206030474919778 0  0.6694099692696568 0.3242771941727899 0  0.9168971191497528 0.1295727156104653 0  0.7562500000000001 0 0  2.118919042110979 0.3422084711244843 0  2.13125 0 0  0.06875000000000001 0 0  1.30625 0.41 0  1.597888256393107 0.2173787389261347 0  0.34375 0.41 0  0.2493272016354703 0.08091360081773515 0  0.5588896233436766 0.3264056208677571 0  1.829299675393195 0.07400700849299596 0  0.1334079128307869 0.08523463035786674 0  1.71875 0.41 0  0.06875000000000001 0.41 0  1.16875 0.41 0  2.038220665644273 0.332420740103091 0  0.8810647413215221 0.2027360103977071 0  0.34375 0 0  0.7453891198966415 0.2471459041008237 0  0.42112093004955 0.1988123139090554 0  0.8314023090855964 0.3351170841770613 0  0.89375 0.41 0  0.7906250000000001 0.06615386481594063 0  1.452769549894695 0.1548122580621249 0  1.369219062229598 0.07430640243902442 0  1.30625 0 0  1.07420695807087 0.07430640243902439 0  1.720943423819132 0.1714577452753128 0  1.157188124459196 0.205 0  1.304056576180868 0.1714577452753128 0  1.67579304192913 0.07430640243902437 0  1.209670467133757 0.136210026696477 0  0.4312800784902823 0.08036147352247747 0  0.8723959680194693 0.07066860609690805 0  1.025335513626278 0.1700681449722324 0  0.7945632284247136 0.1940204203251442 0  0.378125 0.3452261501101892 0  0.3307109909790086 0.2037165635083759 0  0.3009701032039409 0.2702970083403109 0  0.20625 0.41 0  1.58125 0 0  0.4812500000000001 0 0  0.9838963872396855 0.2722244191167347 0  0.06772484939107212 0.3260067317374387 0  0.20625 0 0  1.58125 0.41 0  1.631724228912893 0.3381867502687533 0  1.825608881788174 0.14499488549201 0  1.85625 0 0  1.44375 0 0  1.44375 0.41 0  1.85625 0.41 0  2.13125 0.41 0  0.7562500000000001 0.41 0  0.4812500000000001 0.41 0  1.16875 0 0  1.03125 0.41 0  1.03125 0 0  1.71875 0 0  1.99375 0 0  1.99375 0.41 0  0.9408708167433545 0.0651989315768642 0  1.340625 0.3489494290853124 0  1.134375 0.3489494290853123 0  1.700180620188976 0.3438659752031281 0  0.29668452290037 0.1318471691375986 0  0.3175441051360096 0.06496934809856265 0  0.06509151636162461 0.08140814015999148 0  2.135782184673599 0.07126652247502523 0  1.668441847249787 0.2129203728327609 0  1.295782514339747 0.2378437748815763 0  1.409375 0.3520314716057996 0  2.129248544730567 0.1906135162504124 0  2.060771381434487 0.1989445750470348 0  2.013252586573865 0.1496169464686054 0  1.942766402200229 0.1734448904596831 0  1.895522487186454 0.06076163953489683 0  2.069553871656643 0.06605731020975725 0  0.4670911801404742 0.2498408582391372 0  0.7622743084658112 0.1264100838268133 0  1.274680914880868 0.3520219391081363 0  0.3148669572599245 0.3331753056385887 0  1.614713220494657 0.09473434380863296 0  1.72990325744076 0.2380068107952482 0  1.356580098625191 0.2120393231351682 0  2.034370752044885 0.2668681600792073 0  1.51768709249349 0.3426260931494756 0  1.561883724969884 0.1650446847858835 0  1.197344062229598 0.2523725417393646 0  1.804085235518364 0.3468178408964637 0  1.817887819205233 0.2589243285818559 0  1.905897727272727 0.3485060975609756 0  0.7296439733931823 0.06337466644369745 0  0.4250935971865949 0.1394919578475796 0  0.3773030136511669 0.05130372097998036 0  1.192836486056382 0.3562350748565544 0  1.1029124365364 0.226143510831178 0  1.28257088594801 0.2944411014911587 0  0.1905185804731426 0.06029880676029167 0  1.474860187679412 0.2504218616229368 0  1.406767003493824 0.2829282258560709 0  0.5209826960981064 0.2830664557824064 0  0.5131119502780163 0.3617405848213254 0  0.1948220106098172 0.3081993407644811 0  1.845656689180403 0.1998310418452388 0  2.144958525570388 0.2909790873294231 0  2.2 0.15375 0  0.8833025251326762 0.2625402923007629 0  0.171875 0.3653875762360952 0  1.57794966442982 0.3540357145964566 0  0.446875 0.366068291212731 0  0.4272051715206439 0.2891929346190664 0  1.508991196088596 0.1421783375065625 0  1.50436820029908 0.06143401634903343 0  1.223857000523521 0.08235548624535324 0  0.6137904613287555 0.3066826366281556 0  1.153316824384777 0.1289850171317838 0  0.9751573703656133 0.327632618473408 0  2.148922302309752 0.1258841779285271 0  0.9281250000000001 0.3643758685795699 0  1.621993280276081 0.2841214267927899 0  1.550118654119087 0.2461998729100966 0  1.327182649291491 0.1216967252533594 0  0.9939955742738924 0.04663549843168518 0  1.753125 0.04556020050186112 0  1.271875 0.04556020050186116 0  0.9734326767716519 0.1506854560854393 0  0.103125 0.3675775577080512 0  1.94956388244759 0.1180512551534177 0  1.949997712993411 0.04965831614304109 0  0.717433898748555 0.295596016333797 0  1.771961817615021 0.1530278789497521 0  1.909246823951428 0.2812757146784527 0  0 0.35875 0  1.050632804931928 0.1226269704412814 0  0.05695108326502596 0.2024009637347154 0  1.948575539857022 0.2445328248721197 0  1.697271520964565 0.1233917627620729 0  1.065625 0.3689344961371042 0  1.085849084308977 0.3170853572226867 0  0.1015495998772944 0.04226029099983852 0  1.577403511714593 0.05463601888079143 0  1.751571320346033 0.3651102912045228 0  2.2 0.35875 0  0.7441773632462837 0.1786786606458751 0  0 0.05125 0  1.466879772203159 0.3611261772912453 0  0.6282230348858767 0.3577675483994025 0  1.990280163552011 0.3564754268533217 0  1.17471064520912 0.2990917256188288 0  0 0.25625 0  2.2 0.25625 0  2.2 0.05125 0  0 0.15375 0  1.853978576207987 0.35875 0  1.515638456102889 0.2882700110184686 0  2.150453692751374 0.2387066338105111 0  1.323782677156475 0.04897634338873398 0  1.409375 0.03715320121951221 0  1.406484531114799 0.1087852750766809 0  1.134375 0.03715320121951219 0  0.721875 0.3729363922161693 0  0.7941695928236929 0.3696489254637395 0  0.7934827162619036 0.3013409431456604 0  1.627401732573545 0.04552157221025036 0  0.9352049974617431 0.2507047965699472 0  0.8763260682738339 0.3611103317460093 0  2.045405893604797 0.1105340662939892 0  1.255408269734577 0.1577307500159216 0  2.028125 0.03707597992059326 0  1.003030137506755 0.3689344961371042 0  1.248258025468107 0.2565907092181813 0  1.203125 0.03661323374043041 0  0.4800125512335631 0.0549472816999725 0  2.072662025974815 0.2975086504196739 0  0.240625 0.3729825336867542 0  1.113252391110535 0.10238286244357 0  1.071052763974265 0.1885202618768825 0  0.8738809401657862 0.3106483608284829 0  0.6786819423003397 0.2677558482644021 0  1.887722846421017 0.1760882698830035 0  1.472640588990488 0.1118278026240017 0  0.5843750000000001 0.41 0  1.865937103925594 0.2604137786483804 0  1.463913572748262 0.2030442564990043 0  1.376426316059077 0.3186741374914345 0  0.1038643885363755 0.2162701735320032 0  0.1769473813227781 0.1070849728467114 0  0.458787839809176 0.171541653775316 0  0.240625 0 0  0.04179569703428024 0.2877217852556549 0  0.1258346557601885 0.2699740073054968 0  1.722140693354707 0.282908100935778 0  0.41206179117512 0.2448172567039922 0  0.3702471778075604 0.2265217604228704 0  0.3714881805374215 0.1786967818665642 0  1.77397096061971 0.2481483237422926 0  2.105123889160691 0.03743885948498647 0  1.001138337938679 0.229719337663998 0  1.051242910646791 0.2854826559431138 0  1.395420985247586 0.18
[...]
<PointData  Scalars="f_43"> 
<DataArray  type="Float64"  Name="f_43"  format="ascii">1.0791360281738847e-01  2.0432263318344979e-01  -9.0728390060528341e-12  -1.1579816252754469e-10  8.0353763482728185e-02  8.3530294515404946e-02  7.0138101467734526e-02  6.6414220962156212e-02  1.3683174402566622e-01  1.3834920735173717e-01  8.9233518694020658e-02  7.1108953632419508e-02  -4.7954166909007431e-03  -3.5819976227298334e-03  -7.4181126747100822e-03  -1.4354854999986601e-02  3.5307189138360486e-02  -6.3025872286543456e-03  -2.1079617105402175e-02  8.7346918623058406e-02  1.5899260320829936e-01  1.5172044750646493e-01  7.3907641335510921e-02  1.5282209427484001e-02  -1.9798114224672668e-02  -3.4085193727065650e-02  -2.4815438400821729e-02  -1.1156018443094714e-02  -1.5126782208901366e-03  1.1805930192858254e-01  2.4279764463144946e-03  5.7696873602143685e-02  4.7329696353839441e-02  1.0119604297508319e-01  -1.0917522656013765e-03  9.2754326358299929e-02  2.0707150233339818e-04  -3.2421345632373611e-03  3.3653870834396966e-03  5.5049820233424498e-03  7.6465668002870428e-03  9.4132123615514925e-03  1.6063616703692364e-03  3.0638261425681369e-03  3.7598727644709840e-03  4.8255268288412857e-03  5.1021112672152199e-03  1.7878734375996372e-03  -1.0444832094946238e-03  -8.9846129765202696e-11  2.5794966542407290e-03  8.0325581651589137e-02  1.6080079254365081e-03  1.8002713482670111e-03  -1.9294992636702662e-11  5.6066981715038964e-03  5.4355496580549617e-03  1.1926124746908471e-02  4.6332562011822138e-03  2.1601906480213104e-03  1.1027651958126434e-03  1.0637713910340671e-01  1.1385146526511886e-01  1.0688697588270411e-01  7.8254395666019095e-03  -1.4767536548474010e-04  2.3059285605704230e-06  -9.3171960858063913e-04  2.8569797663050961e-03  6.8523352368413826e-03  1.1688306574096413e-03  9.1315333143012684e-02  9.9443081421496354e-02  5.7287151162924562e-03  1.6024483686290433e-03  2.4384362927911750e-03  8.7269873191326165e-04  3.4823078238899077e-03  1.2893880353987356e-03  4.7103560179399600e-03  1.0869770347934805e-01  1.2851945192779773e-01  1.2744782725100099e-03  7.1782311515708658e-02  2.3742818058826139e-03  8.7249111780404991e-04  3.1212132221110234e-03  2.2622593949753037e-03  3.2206407207853028e-03  5.2738341061665311e-03  -3.0707518266646119e-04  1.8703964382042505e-03  2.1910706897626514e-04  -4.4497477883567769e-11  3.1985294114159680e-03  1.0196961838978296e-02  1.1362063957620731e-02  -2.0780450313965327e-03  1.1931536888321300e-03  -2.2743244041228242e-04  3.8134119345450573e-03  2.3392509966896808e-02  5.7388892031752740e-03  1.1683201600598170e-03  3.2078688564901076e-03  1.1324745860818801e-01  9.0189739300623920e-02  1.2853404145492617e-01  1.0506831147201234e-01  1.6643474583467916e-03  1.0086015535278889e-03  -3.0415339502404539e-03  1.0447762995066327e-03  8.1858046625546150e-04  1.2791654039971825e-01  2.4123960916618593e-03  5.2246193203561060e-03  8.6706804245469171e-02  9.5147610619584280e-02  3.3973540093900988e-02  4.1008612648530248e-03  1.2080865110877885e-01  5.9867637107994531e-03  1.0830213523420576e-01  2.8166493885472270e-03  2.1254681105215929e-03  2.1769724622749172e-03  1.0273146819607065e-01  -2.9406638250059156e-03  9.6283664961919868e-02  1.2085256290971047e-03  4.4673203924172812e-04  -3.6765116204987215e-04  8.0907369539776619e-03  7.5182710172708332e-03  4.3491589725980061e-03  -8.2594923927523491e-04  5.7311361512504180e-03  -1.2081283071262332e-03  6.9786708007132654e-04  6.9435890443544377e-03  -2.7345047064666656e-03  1.1693432293717367e-01  2.9758783133964603e-04  7.2913478340088799e-04  2.7197675410051023e-04  8.5154154529051021e-02  8.8779024750922864e-02  8.7315397826258453e-02  1.0080851941893984e-01  9.9114896830088343e-03  1.0643806288613573e-01  1.9580180062119261e-03  1.0823970209554776e-01  1.0527903682536927e-01  3.9753253867907757e-03  4.9629109168200045e-03  4.3120191732650024e-03  3.7749103025125070e-03  1.2225361400272167e-02  1.2323844959124435e-03  4.7595309295455912e-03  8.8410370054012647e-04  1.6573863731849171e-03  6.8266238445624378e-02  -1.7329071598963777e-03  1.8149267604163893e-03  -6.9116477476365143e-04  5.8582262853114899e-03  2.3577777726819502e-03  2.7578452806831574e-03  2.2491749479875710e-04  2.4264952376499738e-03  3.1593963292943553e-03  5.8842887425874261e-03  8.7440990303850261e-02  1.0133618911806014e-01  1.2846849697810644e-01  7.6790836485179036e-04  5.9047225098726591e-03  1.6482704834502467e-03  1.3849580319105067e-03  8.7085344341317097e-04  1.7196972007918240e-03  2.2282894943418084e-03  3.0901753891883158e-03  3.3672952575758267e-03  1.5326275019267440e-03  8.0949667442976311e-02  -2.0050559524624647e-03  3.1763492686423056e-03  8.9039351294210548e-02  8.5574452083139445e-03  5.7821218937487966e-03  2.9691108451593774e-03  2.1287250812262052e-03  1.8164243962736936e-03  7.3345420177854939e-03  6.2890844512852493e-04  5.4223989381959378e-03  5.0529159388325688e-03  4.0370869721274771e-03  -2.1164069341902472e-03  1.1799234641442888e-01  1.0610676108308582e-01  3.3816310545788852e-03  1.2554264468926589e-04  3.0078782584748547e-03  1.0623152145441409e-01  2.0145046560924194e-03  1.5256897249540642e-03  4.5710746521877663e-02  5.8150404715844296e-02  9.2517188671340470e-02  4.3685014114215048e-03  6.9641646163380599e-04  -5.1333607619113036e-11  2.1368715721102050e-03  1.0325726568646595e-01  3.5583613963105936e-03  7.5156125422673706e-02  8.6544986580816344e-02  9.0762052477809992e-03  1.1846015977949017e-02  -1.8141272272060615e-03  -5.5025963481158560e-05  -2.2799878455326606e-03  1.9323522617701828e-03  6.2048963918816659e-04  1.3041061765843725e-03  4.7490239626405860e-03  3.3602746563563572e-03  2.7582934804211558e-03  -1.1185812141283413e-04  5.2317989095604046e-03  1.2335857088925223e-03  9.5917259442765987e-04  1.0744337822809649e-01  2.8786689590684731e-03  2.8101494305433623e-03  -3.0567644889915278e-03  5.0200506980841086e-03  3.8866324496934506e-03  1.0775046974092654e-01  -1.9047974931942274e-04  1.2072085480141521e-01  3.2358577739061683e-03  6.2168401427539427e-03  2.4950133285176249e-03  2.5200827236982089e-03  1.2263501816049470e-01  1.0102726940669804e-02  5.8543094890415662e-03  -1.1579816252754469e-10  -2.5322758444969828e-03  1.3723665549963154e-01  1.2366191863769349e-03  1.7026977439785387e-02  2.8066479409028823e-03  2.6369936874768973e-03  1.1212992610871576e-01  -8.9846129765202696e-11  -9.0728390060528341e-12  1.2376203221904947e-01  4.7852719950062794e-03  1.6197594255870779e-03  6.1992110771287091e-04  4.7483033949776961e-03  1.0669387396764143e-02  8.8260753263858984e-03  -1.6047182303654314e-03  4.2715840658134573e-03  1.2820828770522300e-03  6.0195097967825277e-04  8.4842763015918251e-03  2.1907905086580083e-03  1.0530823331055647e-03  1.8257555777975666e-03  -1.7082952636456393e-03  1.9870428579059798e-03  1.9083810023225998e-03  1.5296984066280701e-03  -1.2884048544454796e-03  1.0952471741328410e-01  1.6424707515053155e-03  9.5867701458168780e-02  -1.4856962263990079e-03  1.9008543103483789e-04  1.6074675802605061e-03  -1.0737979728672785e-02  3.7383981432025318e-03  1.0695456568299013e-02  3.4855554647837100e-02  4.4257854846551032e-03  4.7402421373065034e-03  1.8731203498232696e-03  1.2367709837064317e-01  1.0723541618189583e-01  1.1616519507636752e-01  1.0229774092206703e-01  1.0994142926298470e-01  1.0618917272315222e-01  5.9285906527209858e-03  9.1669884570656668e-02  9.1777141485952715e-02  9.2820419442543919e-02  5.4934054703151946e-03  1.1208713660646383e-03  1.6323023777165954e-03  1.8236846622179299e-03  4.7580792259515475e-03  2.2735024421078535e-03  8.2763615717730055e-02  7.7920548285610311e-03  1.2738747491384167e-01  1.3221253283994372e-01  1.6515540236990947e-03  1.4307245318299360e-03  9.2916103480199783e-02  5.2887896088031844e-03  2.7044627898475731e-03  8.9295254580617975e-02  8.4525364125178110e-02  8.5840065502770041e-02  4.7674277182959589e-04  1.3378362256402619e-03  1.6262539572967742e-03  1.5523205371220966e-03  5.4663462468966138e-04  4.8435185016335426e-03  9.8132936990267452e-03  4.6080607254301879e-03  3.9018321467207254e-02  1.4093825633208718e-01  1.0785813715917976e-01  2.5468265274984905e-03  2.4719564707940916e-03  -6.6527161450000648e-04  8.9504504160703866e-02  9.1410345787091132e-02  -2.1562238612076352e-03  1.2457612673904911e-02  6.2068901715320954e-03  3.0354904886164846e-03  -5.2506876264507606e-04  6.6652342234014466e-03  6.1708944400129234e-03  4.8551983005734215e-04  5.2121498451635428e-04  1.3057627477061523e-01  1.3336868026354362e-01  1.0793830716248150e-01  1.1371284462854470e-01  -5.7427320153345077e-04  -2.3699304698109204e-04  5.3292326655165609e-03  4.5169506399990785e-03  3.6863623553745105e-03  8.9067020612674574e-02  8.1858363280840729e-02  1.0123815958708562e-01  1.1028393657715860e-02  3.4448369957867735e-03  1.8148933775171301e-03  1.3766708817830942e-01  4.0758024543718918e-04  5.2180753083094725e-03  5.9367385647204453e-03  5.5275246321518957e-03  1.0955786531896097e-01  1.7282900459892566e-03  9.7091798676226471e-02  8.7105114893988797e-02  5.1404027844825775e-03  3.2471553722977428e-03  8.9780747574973035e-02  1.2932021656921035e-03  1.2131268495288509e-02  2.1313494950369553e-03  1.0302823511530890e-01  4.1022184341757088e-03  -8.2193476262802819e-04  1.0804531349173213e-01  1.0155252106784364e-01  7.8106818236818254e-02  -1.0834547503181737e-04  3.8130974452147943e-05  6.5694615278019626e-05  -1.5838381154493772e-03  4.7975080370378466e-04  1.2804291444186422e-01  2.8211010843585769e-03  8.0178228131358539e-02  9.6370495308841231e-02  -2.7208345470117461e-04  -4.2733209649964575e-03  2.4044899261515102e-03  5.3756392294192809e-02  4.2653922829012023e-03  9.6720641960029247e-02  3.7704887887002898e-03  3.4119739849803161e-03  3.0472528235183597e-03  8.7136310606059697e-02  1.0960632115993190e-02  1.1158379700553171e-03  5.9996666611697993e-03  -2.5061846841204735e-04  -1.2002483453798089e-03  7.2930087309139979e-03  7.3372795160800133e-03  8.5924392735881691e-02  1.1533952908602048e-01  2.1525589555573053e-03  7.5252733533088811e-03  8.7900378124055462e-02  1.7822536317467410e-03  1.2437751176365321e-01  4.7867811613470099e-03  -1.4892785621341198e-03  -3.1569105044497543e-03  2.3608524136283299e-02  6.9266935291328420e-03  -1.0593641766378255e-02  1.9477489784902589e-03  1.3107948123341204e-03  2.4049293240898076e-03  1.0812470490662419e-01  1.2719587365973776e-03  8.9014607916507789e-04  1.5105271283178837e-03  -4.1813962018071921e-05  1.1485545534047936e-02  -1.1025139789362078e-03  -1.0886822345991868e-03  -1.8575530461540052e-03  -1.5192940911406489e-04  5.5167205193515324e-03  1.3637666569176749e-05  5.5560454633493250e-03  8.4417785780588467e-05  6.2911477837731553e-03  7.7832234500779945e-03  6.1989086588470164e-03  2.8500651715043924e-03  2.6785350919862417e-03  8.3643859449756178e-02  -2.0769178190387541e-03  -2.5683737129838500e-03  4.1621371482482867e-03  5.6089862289090226e-03  8.3272731551250004e-04  5.1596744994019522e-04  4.9054457447431435e-03  6.4735100319010669e-03  2.4025515017527463e-03  8.0820148448805446e-02  8.3778304490253544e-02  2.0526415064121518e-03  4.1731990437715340e-03  8.8022280408454098e-02  1.7283761922307081e-03  2.1794909476528560e-03  2.5913344971609876e-03  1.1664987760372308e-03  2.3181899485724068e-03  -1.7452612070016369e-03  1.0347442801886693e-03  4.5497605157985757e-04  5.7417918115852656e-03  1.1034556838525365e-02  9.4544013232011046e-04  3.7436662362849254e-04  1.2714029072965162e-03  -1.5910653271620153e-04  1.3256478465325713e-01  1.0905053133754225e-01  1.0011000610446102e-02  2.8755833599629623e-03  1.0358042046740285e-01  -4.2406221297027055e-03  4.2581198031191547e-04  9.6045424324675240e-04  3.0235669030343271e-03  1.1840558494949933e-03  -1.0050678007324301e-03  3.8727203984566748e-03  4.7314319893197974e-03  -1.7633235948990536e-03  1.4641183541986898e-03  -7.1392758266357213e-03  2.0946677568314219e-02  2.0529108410739647e-04  2.0625370049230500e-03  1.6955443483813390e-03  3.1386879730303649e-03  2.6657627336223230e-03  2.6996841808620371e-03  2.0259708182648684e-03  1.8335144506559128e-03  2.8096782696899547e-03  9.4320266483912868e-02  1.0379788679814177e-01  5.7352026351736160e-03  9.5018324723704774e-04  2.8907015109327586e-03  4.0780553050454192e-03  -6.2419153365758510e-04  -2.0442318188066994e-04  1.9745176849223028e-03  1.2688069858649165e-03  5.8757957965456060e-03  2.5129142156930647e-03  2.0894106309258956e-03  6.0848329116510809e-05  3.1544202688153335e-03  2.7130408347989876e-03  2.8370731813967868e-03  9.9977859258025339e-02  1.0605300253011105e-01  -1.6415604755035864e-03  7.0056287084943299e-03  4.1355974877625132e-04  1.2154277872644748e-03  3.8369902107495413e-03  -1.8178835041359092e-03  1.1272184896895975e-02  1.5205793678680906e-03  5.8940553547968694e-03  2.1428117912647019e-03  5.1829536433412688e-03  7.4557207118442425e-04  1.2958733531311111e-03  4.4051720421086482e-04  1.0748411938742354e-01  7.5478900902154741e-02  1.0455080117191416e-01  9.6633799758610292e-02  1.1781276068578907e-01  1.0812173232760147e-01  1.0452637673305251e-01  1.0810063933414246e-01  2.2672132468132519e-04  6.0646018100733105e-04  5.8995800789736604e-02  1.4094416383530881e-02  2.4259240797928805e-03  -1.2282412184595425e-03  1.4548678602902411e-03  8.7422100809579836e-03  2.7140938629100215e-03  1.8816294799745648e-03  -3.5118784884435801e-04  1.9888101295494876e-03  3.2533813650264948e-03  -1.3081740858591765e-05  5.9077938648824388e-03  9.1008934723450161e-02  7.1231568717944893e-02  4.9482546257570655e-02  -1.4555642901308921e-03  2.2174119090830799e-03  1.2515343600237328e-01  9.6471140026068714e-03  -2.3486236917747883e-03  1.1693105379817078e-03  2.8416668999654962e-02  9.0039217743087527e-02  2.3987325938764387e-03  2.6467042198203114e-03  8.1717931133829511e-02  3.3163501606868315e-03  2.1655787067865005e-03  1.1708771710845156e-03  3.2371609962404983e-03  1.0390644578123283e-03  1.3096753880786490e-03  5.8791882307137177e-03  4.2020836923416151e-03  1.1077593982504619e-03  5.8532394297086529e-03  4.1505977280846479e-03  5.7021952661846318e-03  1.4876888820833081e-03  3.7034213186355222e-03  1.7131805843616772e-03  9.4172756891259778e-03  1.6171896310515552e-03  1.3409163519860288e-03  1.0083796575742301e-01  6.7566442513322056e-02  1.7863113888252756e-03  -9.0497615598152678e-04  3.8485227637868303e-03  3.4375379122735484e-03  3.4042633925671097e-03  3.3549609257566429e-03  1.4758889825187331e-03  -8.2761975882638772e-04  2.0851507719443895e-03  5.4032987262795070e-03  1.0247265440244767e-01  5.0537621170390302e-03  5.9049477986158798e-03  4.6070542780978739e-03  2.7109039665303009e-03  1.0712612617307113e-01  3.9834706910494205e-04  -3.2493685434673605e-04  8.7670661497359446e-03  8.4333616527927702e-02  -2.1709679217059012e-02  9.6523327212592498e-03  7.9056080419411083e-03  4.0135422239333052e-03  1.2759491827027553e-01  3.3322351146147680e-03  -2.3484278381477319e-03  4.1791305646852904e-03  2.2655386847665621e-03  1.0663440413674506e-01  1.1322692658073516e-01  6.5724356660135921e-03  4.8570868492507045e-03  1.3207932927488986e-01  1.0764719170055542e-01  4.5113389731315026e-03  1.7180741810109794e-03  3.5137050853810596e-03  -2.0831837407621462e-03  2.1396339310483796e-03  1.0521098247598209e-02  4.9626089346381597e-03  3.3112162988112167e-03  5.7821700720895458e-03  1.1270489085027756e-01  9.9723706215415570e-02  -2.0751277886180055e-03  3.7817601773273740e-04  2.0485062680966181e-03  -5.0930058328600074e-04  6.2400991961196247e-03  1.1859621529463703e-02  1.0040311300924438e-02  5.4292954946167371e-03  4.9200688428059861e-03  1.3204945207602830e-03  1.2060999505100305e-02  3.0391584776610536e-03  1.5768696175571001e-01  1.0782287306403121e-01  8.7842169741810163e-03  3.3633176414747000e-03  -5.2030202618653992e-03  1.0126596489991463e-01  3.1535256446602942e-03  2.6368111392118571e-03  1.0946732407576359e-01  8.3422838167422825e-02  2.5542581954328728e-03  1.0981869968680869e-01  8.8742855129947923e-02  2.1897538186854432e-03  -8.7808923347050000e-03  1.5943924588664168e-02  5.0431669667544275e-02  -4.5405562726744960e-04  4.9845949492304236e-03  1.0378740956291644e-03  1.1864858661870983e-03  1.2045766490052126e-01  4.1211142694855193e-03  2.4349954104630110e-04  7.6400824693100451e-03  4.3434172016999714e-03  -8.9846129765202696e-11  9.0087799822216888e-02  1.9889877830736561e-03  2.2198017473684193e-03  -4.0690131665184308e-04  1.6948791636014111e-03  5.3647564183138671e-03  1.0952509275743268e-01  1.2470336370512408e-01  4.2616744455658612e-04  1.7357035421051656e-03  8.5768880107859644e-02  9.9449837394628399e-02  1.2185230788684673e-01  3.9836857613703893e-03  3.3871064849468613e-03  2.9428696570211574e-03  1.1537477672758287e-03  3.2723263096986442e-03  1.1747706367256581e-02  4.5479968589742081e-03  1.8616543620126832e-03  1.1358311066985412e-01  2.0679283503193670e-03  1.9691023515612523e-03  1.8574345806001539e-03  4.6563514494417993e-02  9.0322946360114606e-02  8.2178718612051865e-02  4.0192945506846781e-03  1.1203558627708490e-01  1.4565412370973620e-02  6.1934176769752498e-03  -4.9245043775862710e-03  6.5475992962128293e-04  6.8793257497774406e-04  -5.7720539554087296e-04  -4.4497477883567769e-11  1.3384082062342206e-01  8.7595999517425152e-02  2.8122817596492660e-03  2.2231026810413312e-03  1.9068499711427619e-03  2.8629891029728909e-03  5.6683279016299382e-03  1.0231582537355460e-01  9.2822568283502216e-02  1.6051082741759124e-02  2.8604007913023109e-03  6.3913631299902907e-02  -1.8834787920074585e-04  2.5627876834947729e-03  8.8308745437184269e-03  5.1196436225396684e-03  3.0785192438249072e-02  7.3384864859630311e-03  4.3654852638064347e-03  5.7268352928253156e-03  8.0937967169832103e-04  8.7996092920202939e-04  3.6722378833085732e-04  8.0040846829301557e-02  5.2956725090564843e-02  4.2101030720698169e-03  2.8347632637571846e-03  -5.8747395988568499e-03  9.1523816278336455e-04  3.3614340036638582e-03  5.5565091427393623e-03  4.8651331607840386e-03  1.1640924900714475e-01  8.7831450555020708e-03  -2.6843222400455922e-03  -1.6502701035214183e-03  1.0789903978268098e-01  2.4663599719688166e-03  8.3550680325923610e-02  -2.7947534557604065e-03  1.0294219632539854e-01  3.4681741685940277e-03  1.3002914917263741e-03  1.0272672638552331e-03  8.9176397802879420e-02  -9.7028389905419400e-04  -1.6057334397386091e-04  -8.9846129765202696e-11  2.0825490863709485e-03  2.0038223073950479e-03  3.3704569933209138e-03  4.3767483821480343e-03  9.0116253987657768e-02  8.7776175242630899e-02  3.1759479387233605e-03  -3.7734005328672631e-04  3.0325831805934110e-03  1.3826598155389615e-03  3.6848941609092817e-03  3.1690490254426269e-03  4.3036922025621576e-03  7.3847227793293183e-02  2.3856883423669117e-03  -1.7979084690751730e-03  -2.0608079600861078e-03  6.9110029154594230e-03  2.6488392262166002e-03  2.1873268014446353e-03  2.3112443545691571e-03  4.7197146508989726e-03  5.6625820032944543e-03  3.0864868956402389e-03  2.9547231886126531e-03  1.0022495185904864e-01  1.1007401469934025e-01  5.9386380508742957e-03  1.1695664343322743e-01  1.0609888092173361e-01  5.1327221066164736e-03  1.4264034290028228e-03  5.4695083810153504e-04  6.2647120733748396e-05  3.0973951284673485e-03  8.7468932728502645e-04  1.0875377939141887e-03  7.7559699366287427e-02  3.7452683119537818e-03  3.2836211630502248e-03  -8.3180810750143480e-04  8.1191673544387347e-02  -1.2156268391973087e-03  5.8536620024397272e-03  -2.4519291341201263e-03  1.1949625928397911e-01  1.0846717574429558e-01  3.9623132749355954e-03  2.1607962517473335e-03  4.3475710595383748e-03  9.2226473588132313e-03  9.1076750824533714e-03  1.0775876271505967e-01  5.3800320414000603e-03  9.2729564607932108e-02  2.3792424179393343e-03  6.9729258010970796e-02  8.1086375510294620e-04  4.6414078203441400e-03  5.8057400045201163e-03  1.0695188061856081e-01  2.8335708850170793e-03  1.3524326803472366e-03  1.0273129526486586e-03