<?xml version="1.0"?>
<VTKFile type="UnstructuredGrid"  version="0.1"  >
<UnstructuredGrid>
<Piece  NumberOfPoints="1404" NumberOfCells="2604">
<Points>
<DataArray  type="Float64"  NumberOfComponents="3"  format="ascii">0 0.41 0  0 0 0  2.2 0 0  2.2 0.41 0  0.2353553390593274 0.2353553390593274 0  0.25 0.2 0  0.2353553390593274 0.1646446609406726 0  0.2 0.15 0  0.1646446609406726 0.1646446609406726 0  0.15 0.2 0  0.1646446609406726 0.2353553390593274 0  0.2 0.25 0  0.6923879532511287 0.188268343236509 0  0.7 0.15 0  0.6923879532511287 0.1117316567634909 0  0.6707106781186547 0.07928932188134523 0  0.6382683432365089 0.05761204674887133 0  0.6 0.04999999999999999 0  0.5617316567634909 0.05761204674887134 0  0.5292893218813453 0.07928932188134524 0  0.5076120467488713 0.111731656763491 0  0.5 0.15 0  0.5076120467488713 0.188268343236509 0  0.5292893218813453 0.2207106781186547 0  0.561731656763491 0.2423879532511287 0  0.6 0.25 0  0.6382683432365089 0.2423879532511287 0  0.6707106781186547 0.2207106781186547 0  1.1 0 0  0 0.205 0  1.1 0.41 0  0.55 0 0  0.55 0.41 0  0.275 0 0  0.8250000000000001 0 0  0.275 0.41 0  0.8250000000000001 0.41 0  0.6875 0 0  0.61875 0 0  1.65 0.41 0  1.65 0 0  1.375 0 0  1.375 0.41 0  1.925 0 0  1.925 0.41 0  1.5125 0.205 0  1.7875 0.205 0  0.9625000000000001 0.205 0  1.2375 0.205 0  2.2 0.205 0  1.99375 0.2152743902439024 0  0.4125 0.41 0  2.0625 0 0  2.0625 0.41 0  2.2 0.3075 0  1.7875 0.41 0  1.375 0.1486128048780488 0  1.5125 0 0  1.7875 0 0  1.5125 0.41 0  0.9625000000000001 0.41 0  0.4125 0 0  0.1375 0 0  0.1375 0.41 0  0.6875 0.41 0  0.9625000000000001 0 0  1.2375 0 0  1.1 0.1486128048780488 0  1.2375 0.41 0  1.65 0.1486128048780487 0  0.823495464168302 0.2603780552348366 0  0.3738707794507017 0.2720196349488618 0  0.3662291281331582 0.1311456406657909 0  1.676715909090909 0.2793064024390244 0  1.126715909090909 0.2793064024390244 0  1.348284090909091 0.2793064024390244 0  0.8287581077665108 0.1302150898054257 0  1.894702181800738 0.1282910975492754 0  2.092797818199262 0.1282910975492754 0  1.85625 0.3075 0  0 0.3075 0  0 0.1025 0  2.099172119769978 0.25625 0  0.4752414543992246 0.3180372603390748 0  1.99375 0.08395950269330846 0  1.459960956013612 0.3075 0  1.569025960719943 0.2986889805672169 0  1.03125 0.3278689922742084 0  1.959375 0.3126371951219512 0  1.749222215368287 0.1025 0  1.275777784631713 0.1025 0  0.9228016959331474 0.3075 0  1.000777784631713 0.1025 0  2.2 0.1025 0  1.225938124459196 0.3075 0  1.550777784631713 0.1025 0  1.44375 0.07430640243902442 0  1.16875 0.07430640243902439 0  0.7562500000000001 0.3358727844323386 0  0.89375 0 0  1.899250267340833 0.2229966846119207 0  0.61875 0.41 0  1.766482954545455 0.2934032012195123 0  1.046078563095834 0.2389031808701145 0  1.421109702350723 0.2261157654379721 0  0.07567171807980319 0.25625 0  0.2511897295290552 0.3235829392832554 0  0.07655002503762308 0.1488653460959645 0  0.1377245246847496 0.3206030474919778 0  0.6694099692696568 0.3242771941727899 0  0.9168971191497528 0.1295727156104653 0  0.7562500000000001 0 0  2.118919042110979 0.3422084711244843 0  2.13125 0 0  0.06875000000000001 0 0  1.30625 0.41 0  1.597888256393107 0.2173787389261347 0  0.34375 0.41 0  0.2493272016354703 0.08091360081773515 0  0.5588896233436766 0.3264056208677571 0  1.829299675393195 0.07400700849299596 0  0.1334079128307869 0.08523463035786674 0  1.71875 0.41 0  0.06875000000000001 0.41 0  1.16875 0.41 0  2.038220665644273 0.332420740103091 0  0.8810647413215221 0.2027360103977071 0  0.34375 0 0  0.7453891198966415 0.2471459041008237 0  0.42112093004955 0.1988123139090554 0  0.8314023090855964 0.3351170841770613 0  0.89375 0.41 0  0.7906250000000001 0.06615386481594063 0  1.452769549894695 0.1548122580621249 0  1.369219062229598 0.07430640243902442 0  1.30625 0 0  1.07420695807087 0.07430640243902439 0  1.720943423819132 0.1714577452753128 0  1.157188124459196 0.205 0  1.304056576180868 0.1714577452753128 0  1.67579304192913 0.07430640243902437 0  1.209670467133757 0.136210026696477 0  0.4312800784902823 0.08036147352247747 0  0.8723959680194693 0.07066860609690805 0  1.025335513626278 0.1700681449722324 0  0.7945632284247136 0.1940204203251442 0  0.378125 0.3452261501101892 0  0.3307109909790086 0.2037165635083759 0  0.3009701032039409 0.2702970083403109 0  0.20625 0.41 0  1.58125 0 0  0.4812500000000001 0 0  0.9838963872396855 0.2722244191167347 0  0.06772484939107212 0.3260067317374387 0  0.20625 0 0  1.58125 0.41 0  1.631724228912893 0.3381867502687533 0  1.825608881788174 0.14499488549201 0  1.85625 0 0  1.44375 0 0  1.44375 0.41 0  1.85625 0.41 0  2.13125 0.41 0  0.7562500000000001 0.41 0  0.4812500000000001 0.41 0  1.16875 0 0  1.03125 0.41 0  1.03125 0 0  1.71875 0 0  1.99375 0 0  1.99375 0.41 0  0.9408708167433545 0.0651989315768642 0  1.340625 0.3489494290853124 0  1.134375 0.3489494290853123 0  1.700180620188976 0.3438659752031281 0  0.29668452290037 0.1318471691375986 0  0.3175441051360096 0.06496934809856265 0  0.06509151636162461 0.08140814015999148 0  2.135782184673599 0.07126652247502523 0  1.668441847249787 0.2129203728327609 0  1.295782514339747 0.2378437748815763 0  1.409375 0.3520314716057996 0  2.129248544730567 0.1906135162504124 0  2.060771381434487 0.1989445750470348 0  2.013252586573865 0.1496169464686054 0  1.942766402200229 0.1734448904596831 0  1.895522487186454 0.06076163953489683 0  2.069553871656643 0.06605731020975725 0  0.4670911801404742 0.2498408582391372 0  0.7622743084658112 0.1264100838268133 0  1.274680914880868 0.3520219391081363 0  0.3148669572599245 0.3331753056385887 0  1.614713220494657 0.09473434380863296 0  1.72990325744076 0.2380068107952482 0  1.356580098625191 0.2120393231351682 0  2.034370752044885 0.2668681600792073 0  1.51768709249349 0.3426260931494756 0  1.561883724969884 0.1650446847858835 0  1.197344062229598 0.2523725417393646 0  1.804085235518364 0.3468178408964637 0  1.817887819205233 0.2589243285818559 0  1.905897727272727 0.3485060975609756 0  0.7296439733931823 0.06337466644369745 0  0.4250935971865949 0.1394919578475796 0  0.3773030136511669 0.05130372097998036 0  1.192836486056382 0.3562350748565544 0  1.1029124365364 0.226143510831178 0  1.28257088594801 0.2944411014911587 0  0.1905185804731426 0.06029880676029167 0  1.474860187679412 0.2504218616229368 0  1.406767003493824 0.2829282258560709 0  0.5209826960981064 0.2830664557824064 0  0.5131119502780163 0.3617405848213254 0  0.1948220106098172 0.3081993407644811 0  1.845656689180403 0.1998310418452388 0  2.144958525570388 0.2909790873294231 0  2.2 0.15375 0  0.8833025251326762 0.2625402923007629 0  0.171875 0.3653875762360952 0  1.57794966442982 0.3540357145964566 0  0.446875 0.366068291212731 0  0.4272051715206439 0.2891929346190664 0  1.508991196088596 0.1421783375065625 0  1.50436820029908 0.06143401634903343 0  1.223857000523521 0.08235548624535324 0  0.6137904613287555 0.3066826366281556 0  1.153316824384777 0.1289850171317838 0  0.9751573703656133 0.327632618473408 0  2.148922302309752 0.1258841779285271 0  0.9281250000000001 0.3643758685795699 0  1.621993280276081 0.2841214267927899 0  1.550118654119087 0.2461998729100966 0  1.327182649291491 0.1216967252533594 0  0.9939955742738924 0.04663549843168518 0  1.753125 0.04556020050186112 0  1.271875 0.04556020050186116 0  0.9734326767716519 0.1506854560854393 0  0.103125 0.3675775577080512 0  1.94956388244759 0.1180512551534177 0  1.949997712993411 0.04965831614304109 0  0.717433898748555 0.295596016333797 0  1.771961817615021 0.1530278789497521 0  1.909246823951428 0.2812757146784527 0  0 0.35875 0  1.050632804931928 0.1226269704412814 0  0.05695108326502596 0.2024009637347154 0  1.948575539857022 0.2445328248721197 0  1.697271520964565 0.1233917627620729 0  1.065625 0.3689344961371042 0  1.085849084308977 0.3170853572226867 0  0.1015495998772944 0.04226029099983852 0  1.577403511714593 0.05463601888079143 0  1.751571320346033 0.3651102912045228 0  2.2 0.35875 0  0.7441773632462837 0.1786786606458751 0  0 0.05125 0  1.466879772203159 0.3611261772912453 0  0.6282230348858767 0.3577675483994025 0  1.990280163552011 0.3564754268533217 0  1.17471064520912 0.2990917256188288 0  0 0.25625 0  2.2 0.25625 0  2.2 0.05125 0  0 0.15375 0  1.853978576207987 0.35875 0  1.515638456102889 0.2882700110184686 0  2.150453692751374 0.2387066338105111 0  1.323782677156475 0.04897634338873398 0  1.409375 0.03715320121951221 0  1.406484531114799 0.1087852750766809 0  1.134375 0.03715320121951219 0  0.721875 0.3729363922161693 0  0.7941695928236929 0.3696489254637395 0  0.7934827162619036 0.3013409431456604 0  1.627401732573545 0.04552157221025036 0  0.9352049974617431 0.2507047965699472 0  0.8763260682738339 0.3611103317460093 0  2.045405893604797 0.1105340662939892 0  1.255408269734577 0.1577307500159216 0  2.028125 0.03707597992059326 0  1.003030137506755 0.3689344961371042 0  1.248258025468107 0.2565907092181813 0  1.203125 0.03661323374043041 0  0.4800125512335631 0.0549472816999725 0  2.072662025974815 0.2975086504196739 0  0.240625 0.3729825336867542 0  1.113252391110535 0.10238286244357 0  1.071052763974265 0.1885202618768825 0  0.8738809401657862 0.3106483608284829 0  0.6786819423003397 0.2677558482644021 0  1.887722846421017 0.1760882698830035 0  1.472640588990488 0.1118278026240017 0  0.5843750000000001 0.41 0  1.865937103925594 0.2604137786483804 0  1.463913572748262 0.2030442564990043 0  1.376426316059077 0.3186741374914345 0  0.1038643885363755 0.2162701735320032 0  0.1769473813227781 0.1070849728467114 0  0.458787839809176 0.171541653775316 0  0.240625 0 0  0.04179569703428024 0.2877217852556549 0  0.1258346557601885 0.2699740073054968 0  1.722140693354707 0.282908100935778 0  0.41206179117512 0.2448172567039922 0  0.3702471778075604 0.2265217604228704 0  0.3714881805374215 0.1786967818665642 0  1.77397096061971 0.2481483237422926 0  2.105123889160691 0.03743885948498647 0  1.001138337938679 0.229719337663998 0  1.051242910646791 0.2854826559431138 0  1.395420985247586 0.18
[...]
<PointData  Scalars="f_43"> 
<DataArray  type="Float64"  Name="f_43"  format="ascii">1.0830595903244791e-01  2.0468115830671846e-01  7.6461399643763083e-11  2.8018872414625619e-10  8.0798060461257426e-02  8.3913926923657817e-02  7.0443008715396133e-02  6.6746574598733482e-02  1.3722044492557622e-01  1.3870569814348557e-01  8.9592102762655015e-02  7.1526708483540244e-02  -4.2979764467508917e-03  -3.5465003275052605e-03  -7.6249448080302259e-03  -1.4695829402193493e-02  3.5168325609277788e-02  -6.6787753438264565e-03  -2.1468491356327914e-02  8.7223456092556856e-02  1.5896332288201911e-01  1.5211094151750271e-01  7.4827765392376899e-02  1.6183076032108848e-02  -1.9167208713795264e-02  -3.3661746130641816e-02  -2.4390378245658519e-02  -1.0700648440452197e-02  -1.7791503175839701e-03  1.1843207890076231e-01  2.8403397391700818e-03  5.7564007111537537e-02  4.7752259655454946e-02  1.0152246318678299e-01  -1.4685244202286745e-03  9.3181919819101303e-02  1.2491543568778360e-03  -3.4085840563324757e-03  3.1104244818733317e-03  7.2245132068310507e-03  7.0872524866653084e-03  1.4467314603549211e-02  4.2645139265804965e-03  3.5078366156997857e-03  3.6320230595600416e-03  8.5218621448540782e-03  5.3570341240424752e-03  -6.2022821369638373e-04  4.1717306119783892e-03  1.6848317642995540e-10  2.6809775194922415e-03  8.0704212351865326e-02  1.7667951744301414e-03  1.8014193928615834e-03  2.4895983776825766e-10  5.4982793478832405e-03  1.1773559865625923e-02  1.0112153404773833e-02  5.2153283735640330e-03  7.6300508558945360e-03  2.3865154114743456e-03  1.0660100042961561e-01  1.1420494174482769e-01  1.0730180276553611e-01  8.4874188837845144e-03  -2.6132304981773820e-03  1.0779172685842943e-02  -6.1181830877327483e-03  1.6407581038214714e-03  7.0956395829963352e-03  2.3165037944832662e-03  9.1804573320572777e-02  9.9855379635742106e-02  6.8904709787259710e-03  1.4743400465461497e-03  3.3537896159402812e-03  5.8437958337040959e-04  3.9116414681770141e-03  1.3847841656586953e-03  4.5422671825489638e-03  1.0908609122334455e-01  1.2887989224172056e-01  1.3118099976735728e-03  7.2197048622027124e-02  2.6473280102579061e-03  6.9034044146360166e-03  7.8617492638350002e-03  3.1507076092603288e-03  3.1612717889908559e-03  5.7221388789865752e-03  1.1632066374288737e-02  2.2570229947285639e-03  -3.4787224914795893e-03  1.9236003157782001e-10  1.8837474641574658e-03  8.9179071800247877e-03  1.2238108333028143e-02  1.4413941045331390e-03  2.0297339802937487e-03  -1.4468048336845273e-03  3.9168801135899770e-03  2.3922306380873098e-02  5.7453349820441157e-03  -2.6994359768278708e-03  7.5874192569504451e-03  1.1362718495644304e-01  9.0615664399440438e-02  1.2889581370244652e-01  1.0546973770715343e-01  2.3295435733846673e-03  -5.5727097153503136e-04  -3.1467315567708229e-03  1.0595278126697867e-03  8.8401473530821733e-04  1.2827436976101511e-01  2.2074579290121002e-03  7.7417640765985018e-03  8.7111080843105038e-02  9.5487081933386495e-02  3.4477734877952929e-02  4.7056146141036571e-03  1.2116158522981084e-01  6.4114653402781831e-03  1.0869614267886077e-01  2.2932304118504247e-03  2.1210178260412313e-03  2.2850967126655393e-03  1.0301824588477405e-01  -2.1904433938251268e-03  9.6855674944390277e-02  2.1979853914783536e-03  1.6938406379911905e-03  -5.2168496737133084e-04  1.0253105973604739e-02  1.4297527307159903e-02  1.4654114792630103e-02  -4.0858046660414340e-03  6.1686607808674647e-03  -1.9321452012737159e-03  9.5977818553727324e-03  6.7013877012256536e-03  3.4183107591284258e-03  1.1713413609472523e-01  -4.6020431761676516e-04  -4.4511605717447809e-03  1.1153400435785106e-03  8.5560154069222336e-02  8.9203916939790268e-02  8.7758565122463300e-02  1.0124237270652726e-01  8.3651846505169436e-03  1.0655631700585361e-01  3.3188009368925790e-04  1.0862913179971925e-01  1.0562345633969895e-01  7.7403865981698879e-03  7.4000863121592153e-03  4.7965132610725946e-03  4.3616989553313008e-03  1.2359274282439508e-02  6.4808873490919145e-03  4.5613218109311071e-03  8.9736212930379214e-04  2.4838013429639965e-03  6.8643104091983015e-02  3.8027343106152422e-03  2.8423110288332450e-03  -3.5134174769198986e-03  6.0959020406854223e-03  2.6430190241182533e-03  2.7110820239486804e-03  -1.6293248991616769e-03  2.6828442985537496e-03  3.3034893229174642e-03  6.6356794705255458e-03  8.7777022103643229e-02  1.0165871897317881e-01  1.2882566452841623e-01  8.2786911665620646e-04  6.9086669264852643e-03  4.2289390475952629e-03  5.1880561488339269e-03  9.1576873130458944e-04  1.8044915986588188e-03  2.4088512471370288e-03  3.3218598202475204e-03  3.8771204587047530e-03  1.6781353301044564e-03  8.1566468778615828e-02  -2.0034793938593920e-03  1.6124866793371451e-03  8.9464954342444045e-02  7.6640648419969834e-03  6.1592645577640825e-03  7.3226725494736538e-03  2.1626890823935744e-03  7.6616179110140480e-03  8.3484747388871926e-03  1.8280201970874935e-03  5.2665662610604461e-03  5.0206214967916636e-03  3.8862733325171895e-03  -2.2644008380321638e-03  1.1838859649819437e-01  1.0636601027208711e-01  2.4612754308346446e-03  -3.3196914880441845e-03  1.6285209798027711e-03  1.0658027323634441e-01  7.8083521897826316e-03  5.4777906654888686e-03  4.6291486459602071e-02  5.8553824530027561e-02  9.2929612896199540e-02  4.5942129256853039e-03  7.1583519015213791e-04  -1.8153315833583700e-10  2.5092238388316522e-03  1.0367983323586361e-01  7.7363196747109713e-03  7.5537418021606420e-02  8.7025533070138397e-02  9.4625166169150492e-03  1.0362308510024214e-02  7.3621600473087329e-03  5.5859701969851613e-04  -2.7738988450057909e-03  2.7691709014775129e-03  6.6039075203194492e-04  2.6702445413562216e-03  7.4977183005284949e-03  8.0575262199245878e-03  1.3089974824544787e-02  -2.8212618664538564e-03  5.6546260271927318e-03  1.2582688837689721e-02  -2.2728682260596449e-03  1.0784294928484768e-01  3.2136313025206724e-03  3.1952235454515802e-03  -2.3240290970309302e-03  5.4867774574885010e-03  3.8181917218283513e-03  1.0814305420278886e-01  -5.4542400953278766e-03  1.2109126548791387e-01  3.2804921059682119e-03  6.4177981847118471e-03  3.4495359538751946e-03  3.0767145019208611e-03  1.2299125602219121e-01  8.4736590174725943e-03  5.9763714444539514e-03  2.8018872414625619e-10  -2.0780919469659174e-03  1.3759509110054330e-01  6.8775553949816772e-03  1.7604573128219038e-02  2.7566448759296300e-03  2.4931806545056118e-03  1.1251126343972136e-01  1.6848317642995540e-10  7.6461399643763083e-11  1.2412740848944244e-01  4.5901057596598599e-03  7.8329801318772659e-03  6.4408262542947853e-04  1.4557638042887951e-02  1.3512174639549500e-02  1.2771103387099806e-02  -7.2776240267037164e-05  4.9970583125939156e-03  2.2022650212649457e-03  1.6210792254710894e-03  7.4936429948692113e-03  1.1704491360064726e-03  2.2450337468921397e-03  1.9909659730623407e-03  7.5474598009025009e-03  2.2073141480974542e-03  3.2733301772014185e-03  2.5720230641869835e-03  6.5854206658094890e-03  1.0962225548261713e-01  1.6645713350738206e-03  9.6301504161683218e-02  -4.3932795569224647e-03  -5.4941989748084246e-03  2.3752599804083060e-03  -1.0236641149674063e-02  4.0307663770164943e-03  1.0828745793232048e-02  3.5325440378395329e-02  4.3829473646167742e-03  8.7418582718937991e-03  3.8966997105195369e-03  1.2404954181015873e-01  1.0758639410263685e-01  1.1667812799275029e-01  1.0263545180681406e-01  1.1032650305111778e-01  1.0657379240891601e-01  6.3203828532859985e-03  9.2243472328123396e-02  9.2300112221501918e-02  9.3308613142229241e-02  5.5943440131637030e-03  1.2207799741547330e-03  -1.7831682760136140e-03  8.0934709483285237e-04  9.2525728927987643e-03  2.2562063564478168e-03  8.3190587405483171e-02  7.7940237645173467e-03  1.2774813987769709e-01  1.3257365072940294e-01  1.9588414289397355e-03  7.2563191139697017e-04  9.2928016535997512e-02  5.1383922090968001e-03  2.7361634582172630e-03  8.9678858370320774e-02  8.4864888615143741e-02  8.6260879398452714e-02  4.8819225776470507e-04  1.3496012734022817e-03  1.6309488937359389e-03  -1.8223119941321669e-04  -1.9782663723705357e-03  7.5333739426183760e-03  1.0445603949339388e-02  5.1737337556322701e-03  3.9481607352733178e-02  1.4110492689374710e-01  1.0804266674524324e-01  2.5402894717841632e-03  5.7865348804260136e-03  -5.0390070747009417e-05  8.9921952461431295e-02  9.1840107429132040e-02  1.1833442712663553e-03  1.1189442264299670e-02  7.3572637864299188e-03  7.7952743901879024e-03  -3.3991689836192088e-03  6.5720967502945569e-03  6.2476346312835482e-03  5.2314248180072246e-04  5.3079221034269734e-04  1.3093459030786167e-01  1.3372644582579352e-01  1.0833047585665308e-01  1.1406642375974783e-01  -1.2910040062855724e-03  -6.3817876538957484e-04  7.3409416825160820e-03  5.0952286227372336e-03  4.2317274949130483e-03  8.9500583057792266e-02  8.2178669647016395e-02  1.0157031100297766e-01  9.1689925299820625e-03  3.3421204227051257e-03  2.7963116587153129e-03  1.3803433303506882e-01  -1.6360425714237946e-05  5.0308859209261146e-03  6.1692733821126786e-03  7.0579558410586033e-03  1.0986001122799442e-01  1.8518309648373461e-03  9.7447684430024176e-02  8.7519411718038079e-02  8.2110204208150957e-03  1.8578593052097762e-03  9.0247759169621466e-02  1.3707475194221811e-03  1.1575497283599911e-02  1.2691020436230431e-03  1.0337240307860843e-01  7.7777710207675649e-03  -1.0149086531336627e-03  1.0843439611723800e-01  1.0186115486817653e-01  7.8048812460582581e-02  -1.9494570028608946e-03  -1.1975392873340744e-03  -8.1564770103251282e-04  -4.4496099883754728e-03  5.0641210977306068e-04  1.2839989221245637e-01  1.9923080736373301e-03  8.0581363755601779e-02  9.6798263844228766e-02  8.6331149659070580e-04  -3.7654634756185204e-03  2.7009405684150500e-03  5.4190529909885224e-02  4.0948237578740552e-03  9.7116233421171358e-02  4.3495567239228983e-03  3.9350713747043978e-03  3.4692552679012230e-03  8.7799082710155629e-02  9.9082105428411373e-03  -1.1812614323062456e-03  6.1883640036812090e-03  -4.2437966298286261e-03  -2.4099075215862557e-03  6.8662330622457687e-03  7.0400542561534080e-03  8.6259485410115716e-02  1.1571600644688911e-01  2.1385357424972386e-03  1.1236848248526343e-02  8.8339465060679120e-02  2.5238419220187285e-03  1.2474242955554936e-01  5.3395165402150262e-03  -5.6725832568354606e-04  -3.2530876605290993e-03  2.4153575741416081e-02  9.2312385363318740e-03  -1.0010048001053607e-02  2.1504091758176294e-03  6.8570705966745516e-03  8.0627003023094352e-03  1.0851512351505828e-01  2.2422051833946945e-03  1.9725018751494796e-03  2.9192596289814086e-03  1.6993764060986113e-04  9.6825271914335216e-03  -3.2085415266989844e-03  -1.1442496385408031e-03  -2.0501776922531938e-03  -3.6828463241602550e-04  5.8734932632558898e-03  6.4221130841170971e-03  5.9687474696072376e-03  1.1265297918750763e-02  1.3461044927626563e-02  1.4603148307335983e-02  6.6081780735567086e-03  1.1299326939839222e-02  2.9162996185999076e-03  8.4086906904405470e-02  8.0033997596421838e-03  2.6913837326343264e-03  7.6577772934971035e-03  7.0216738851277879e-03  6.2601642731034877e-05  -7.9379181284017176e-04  7.4129368772831369e-03  7.8305035446640386e-03  7.6715260357979077e-03  8.1207910128077723e-02  8.4168450222132957e-02  1.9307358489035632e-03  4.7880123680353152e-03  8.8448990272627662e-02  1.7834408100962044e-03  2.2491509157737334e-03  1.3884285787016282e-02  1.1912917982103664e-03  3.1313270850066399e-03  -9.2326592094786868e-04  1.0770477545629337e-03  4.7655985702674806e-04  5.6958870265776951e-03  9.2497624555989005e-03  -4.1111313732873174e-03  -4.3509403251864934e-03  -2.5130141673200767e-03  -9.4033215458968892e-04  1.3292319706296235e-01  1.0940022521789100e-01  1.3406994114455098e-02  3.5579466091698914e-03  1.0389143854971419e-01  -4.2601429656422976e-03  4.5426625835486012e-04  1.0324776830375601e-03  3.1551410109567067e-03  1.1952226743081672e-03  1.7908222399214682e-03  4.3697304721461439e-03  5.1240086259340331e-03  -1.9276889439952835e-03  2.5392925143785969e-03  -6.7086330713194593e-03  2.0712891635532998e-02  -2.4571823332125704e-03  1.4044146935595454e-03  -6.8393380420661868e-04  2.7711484023158215e-03  2.6372774562046270e-03  2.1156711688582776e-03  3.1071364349726923e-03  3.9858520441015781e-03  3.0269834017010683e-03  9.4660026597781902e-02  1.0408500264071721e-01  9.4091508370007307e-03  1.0107988616778678e-03  1.9095497750338075e-03  4.4523591784166074e-03  -5.5295699959757409e-03  1.0105270690435994e-02  -2.0248164284333866e-04  5.2789256367036068e-03  6.8353127117245401e-03  2.6752976295955754e-03  2.2139237386542654e-03  -5.8219878885384596e-03  3.1401587885615118e-03  1.6855281781603644e-03  3.1208402896342156e-03  1.0040962797492070e-01  1.0646461766483575e-01  3.0947062115854180e-03  1.4995557691737882e-02  4.4384855341458033e-04  1.3233014256118802e-03  4.5747072678622904e-03  4.5062794206093137e-04  1.3527793186321878e-02  7.2031463795418117e-03  5.9624426558749378e-03  2.9064896969574904e-03  5.6477526980385859e-03  2.0432159684821939e-03  5.4533113183241480e-03  4.5089774985336486e-04  1.0766553511723005e-01  7.5852282344440553e-02  1.0480856312683266e-01  9.7067811289949901e-02  1.1816908902469095e-01  1.0852369178816615e-01  1.0495352149718061e-01  1.0849193139678959e-01  1.3794274174482547e-03  1.5348107193237956e-03  5.9386335392221552e-02  1.4689722316801507e-02  2.1981667436367799e-03  7.3945103501739627e-03  2.6550876879916445e-03  7.6816284172418958e-03  3.0766614686212100e-03  1.3302953888690997e-02  -3.2157703270502061e-03  2.2066981541014577e-03  3.1680591903920489e-03  -1.9800394413242621e-03  6.4177992622649564e-03  9.1623645840557974e-02  7.1748291788198845e-02  5.0209616460234169e-02  -2.4414416917860940e-03  2.4357165343726907e-03  1.2550805796283246e-01  1.1543204306533175e-02  -1.5998310512090508e-03  2.0888465318415314e-03  2.8924866129051718e-02  9.0494830975049401e-02  4.6298563754746270e-03  2.5517992523391916e-03  8.2036407789214352e-02  2.8949962341394079e-03  7.8567969494931465e-03  7.5163185117598152e-03  3.7214920948430100e-03  6.2565965716267933e-03  5.8292863162132070e-03  6.5551655773591552e-03  4.0583773953210252e-03  1.4804015334910704e-03  6.4121516629624320e-03  4.7279407897060548e-03  6.9551835576325384e-03  7.0525773549281329e-03  3.6063056703104805e-03  7.3635604442699888e-03  8.0458601691791726e-03  1.7801013993019451e-03  1.4535701680410728e-03  1.0134947483233166e-01  6.7948941048613751e-02  1.0097700329617600e-03  -1.0888386562012034e-03  9.8271949796097987e-03  1.6534502678794271e-03  3.5747611773104112e-03  3.6767718087162191e-03  1.4900307877879846e-03  -5.7758559442693874e-03  2.0973023676710556e-03  5.2630888466999228e-03  1.0278533897304784e-01  4.8556332066024563e-03  6.6582231786848694e-03  4.6679003973495274e-03  3.0584462746113946e-03  1.0752197838691144e-01  4.1236346572420682e-04  7.7517970484262738e-04  8.3899564786332290e-03  8.4733239725401074e-02  -2.1212203485620054e-02  8.3110729846577625e-03  7.2125917250612254e-03  3.8627428141876667e-03  1.2796127002690186e-01  7.7395969533077596e-03  -2.4411457175791944e-03  7.6315050097020658e-03  2.0591394976941790e-03  1.0685825139741507e-01  1.1359926559720823e-01  8.6397776457012992e-03  1.4171068307351061e-02  1.3211290242809304e-01  1.0799657872360729e-01  4.3277795478857302e-03  2.4805264874348770e-03  3.4125407283090315e-03  4.4210109220003289e-03  3.3200815303815771e-03  8.7947993702056065e-03  5.0770732493527699e-03  2.3895105329405828e-03  5.9712700125241344e-03  1.1305520777049417e-01  1.0006815718832147e-01  -2.0005332647944538e-03  4.1009742966061106e-03  2.1330620764407442e-03  3.4039566096908763e-04  6.9458461719810382e-03  1.1246935772745846e-02  9.7541265848823042e-03  5.3680226364392573e-03  4.7960636554811196e-03  1.3835188429013874e-03  1.0610817405073893e-02  2.9692488962259310e-03  1.5804534346824170e-01  1.0821573757363737e-01  8.8799554198224478e-03  3.8469099721139322e-03  -5.4247357049307214e-03  1.0168033618354701e-01  1.5103342034314231e-03  7.8004787689422870e-03  1.0970426556385957e-01  8.3827429156392200e-02  2.8242083680585753e-03  1.1020338642101055e-01  8.9176312937557858e-02  3.0710417253417533e-03  -9.0853407393404681e-03  1.5725966500906390e-02  5.0851021837880019e-02  1.0867791606622804e-02  4.7947177076120987e-03  -1.2333745639436999e-03  1.2894889951816783e-03  1.2082744350292178e-01  4.7224058011037084e-03  2.6298941592627326e-03  7.3940626917640669e-03  4.2317888625927691e-03  1.6848317642995540e-10  9.0516379417650741e-02  2.2927656219541752e-03  2.7580942821592712e-03  -3.1652107527254422e-03  2.7117854353431291e-03  7.2132183576349542e-03  1.0990950122389682e-01  1.2496286433633126e-01  4.5688854276768656e-04  1.7718575930827487e-03  8.6195757723847743e-02  9.9517157547405644e-02  1.2221872966033798e-01  3.9798946417883771e-03  7.5076223402538011e-03  7.8851810351436534e-03  7.3786134450140473e-03  8.2605530967156879e-03  1.2545486330822368e-02  4.3641808503434507e-03  1.3444330249660086e-03  1.1396229421976793e-01  4.5047528698496800e-03  6.5177097342655199e-03  2.7645587336347145e-03  4.7007624826932999e-02  9.0742860083137866e-02  8.2593061167399173e-02  4.2069085595678162e-03  1.1241706889735734e-01  1.5149027186806130e-02  6.8183660602145445e-03  -4.3215944969008059e-03  -3.4293765974180651e-03  -8.5233227619494563e-04  -3.0971350380537555e-03  1.9236003157782001e-10  1.3418300300518160e-01  8.8015490270984251e-02  1.7625969632743485e-03  2.5155490505262171e-03  1.7762175520412062e-03  1.8283610281149092e-03  5.9564211605322723e-03  1.0265016531497061e-01  9.3371144136407375e-02  1.6632602607269027e-02  3.3557473664117361e-03  6.4313037341523493e-02  -3.4020884031257599e-03  2.5259687920134938e-03  9.9354344197644072e-03  7.3317643250900332e-03  3.1342832409865205e-02  8.0213174807825267e-03  5.0452798590077726e-03  5.7278691101813857e-03  8.2653436262880326e-04  9.0798607031179095e-04  3.7870514041025071e-04  8.0508199214780848e-02  5.3794270083508657e-02  4.2775472101178628e-03  2.7944493407169092e-03  -5.2572192878391844e-03  2.2130068968254112e-03  1.4013830936168790e-02  5.8767261566661831e-03  5.3843844651923437e-03  1.1678470509206998e-01  8.0286232382021025e-03  8.3246206022068067e-05  -4.9761761266139829e-03  1.0829409157030509e-01  8.7804804836570868e-03  8.3981048602947861e-02  -2.6187242020715503e-03  1.0329554829066954e-01  2.0616960139397188e-03  1.3017647884411523e-02  2.2308160887542995e-03  8.9600878418735486e-02  -4.5548959147142186e-04  -2.6961886033675443e-03  1.6848317642995540e-10  3.0475231420354415e-03  1.7199652070097229e-03  7.7985234507958225e-03  7.5866051084140214e-03  9.0608553022440627e-02  8.8343913930109277e-02  3.5824849934017302e-03  4.3509035843484442e-04  3.3343637852259345e-03  1.4341445617831294e-03  8.2382921184030369e-03  7.9187011693998468e-03  7.9257016053144759e-03  7.4237967758083764e-02  2.7986118742783228e-03  -1.8554207188643511e-03  4.5310369426421306e-03  7.5427152640667175e-03  3.5904861605433203e-03  2.3379783784376867e-03  2.8081118344535625e-03  4.9760590510091489e-03  5.6041697414100722e-03  3.5340919632905177e-03  3.3753210529287830e-03  1.0056885597033829e-01  1.1045912593379627e-01  6.2905885775409679e-03  1.1731291166283121e-01  1.0624916677500380e-01  5.6200295715882129e-03  -1.2994566196735974e-03  -3.1901404723441063e-03  -2.2201083839858485e-03  2.3270037731940646e-03  -2.7492959016397225e-04  6.1290588766098712e-03  7.7938917767343713e-02  4.1444370184192539e-03  1.4655414223808377e-03  -3.3029257752571466e-03  8.1581925584645651e-02  -5.1640910937504527e-04  6.6531804852706456e-03  5.6046104572861329e-03  1.1963115058784841e-01  1.0844818335363289e-01  7.7259175293379690e-03  1.9278954255629475e-03  1.2689452687990394e-02  7.9300887974544897e-03  1.4137132726944866e-02  1.0815218493587979e-01  5.7924051821339360e-03  9.3161061230349285e-02  7.9919553027273799e-03  7.0042195827501999e-02  8.7809582250172999e-04  5.1476171993697526e-03  6.7474217863888585e-03  1.0747367307836785e-01  1.9521549704930956e-03  6.7606153968237529e-03  6.9819696707612662e-03  7.35