<?xml version="1.0"?>
<VTKFile type="UnstructuredGrid"  version="0.1"  >
<UnstructuredGrid>
<Piece  NumberOfPoints="1404" NumberOfCells="2604">
<Points>
<DataArray  type="Float64"  NumberOfComponents="3"  format="ascii">0 0.41 0  0 0 0  2.2 0 0  2.2 0.41 0  0.2353553390593274 0.2353553390593274 0  0.25 0.2 0  0.2353553390593274 0.1646446609406726 0  0.2 0.15 0  0.1646446609406726 0.1646446609406726 0  0.15 0.2 0  0.1646446609406726 0.2353553390593274 0  0.2 0.25 0  0.6923879532511287 0.188268343236509 0  0.7 0.15 0  0.6923879532511287 0.1117316567634909 0  0.6707106781186547 0.07928932188134523 0  0.6382683432365089 0.05761204674887133 0  0.6 0.04999999999999999 0  0.5617316567634909 0.05761204674887134 0  0.5292893218813453 0.07928932188134524 0  0.5076120467488713 0.111731656763491 0  0.5 0.15 0  0.5076120467488713 0.188268343236509 0  0.5292893218813453 0.2207106781186547 0  0.561731656763491 0.2423879532511287 0  0.6 0.25 0  0.6382683432365089 0.2423879532511287 0  0.6707106781186547 0.2207106781186547 0  1.1 0 0  0 0.205 0  1.1 0.41 0  0.55 0 0  0.55 0.41 0  0.275 0 0  0.8250000000000001 0 0  0.275 0.41 0  0.8250000000000001 0.41 0  0.6875 0 0  0.61875 0 0  1.65 0.41 0  1.65 0 0  1.375 0 0  1.375 0.41 0  1.925 0 0  1.925 0.41 0  1.5125 0.205 0  1.7875 0.205 0  0.9625000000000001 0.205 0  1.2375 0.205 0  2.2 0.205 0  1.99375 0.2152743902439024 0  0.4125 0.41 0  2.0625 0 0  2.0625 0.41 0  2.2 0.3075 0  1.7875 0.41 0  1.375 0.1486128048780488 0  1.5125 0 0  1.7875 0 0  1.5125 0.41 0  0.9625000000000001 0.41 0  0.4125 0 0  0.1375 0 0  0.1375 0.41 0  0.6875 0.41 0  0.9625000000000001 0 0  1.2375 0 0  1.1 0.1486128048780488 0  1.2375 0.41 0  1.65 0.1486128048780487 0  0.823495464168302 0.2603780552348366 0  0.3738707794507017 0.2720196349488618 0  0.3662291281331582 0.1311456406657909 0  1.676715909090909 0.2793064024390244 0  1.126715909090909 0.2793064024390244 0  1.348284090909091 0.2793064024390244 0  0.8287581077665108 0.1302150898054257 0  1.894702181800738 0.1282910975492754 0  2.092797818199262 0.1282910975492754 0  1.85625 0.3075 0  0 0.3075 0  0 0.1025 0  2.099172119769978 0.25625 0  0.4752414543992246 0.3180372603390748 0  1.99375 0.08395950269330846 0  1.459960956013612 0.3075 0  1.569025960719943 0.2986889805672169 0  1.03125 0.3278689922742084 0  1.959375 0.3126371951219512 0  1.749222215368287 0.1025 0  1.275777784631713 0.1025 0  0.9228016959331474 0.3075 0  1.000777784631713 0.1025 0  2.2 0.1025 0  1.225938124459196 0.3075 0  1.550777784631713 0.1025 0  1.44375 0.07430640243902442 0  1.16875 0.07430640243902439 0  0.7562500000000001 0.3358727844323386 0  0.89375 0 0  1.899250267340833 0.2229966846119207 0  0.61875 0.41 0  1.766482954545455 0.2934032012195123 0  1.046078563095834 0.2389031808701145 0  1.421109702350723 0.2261157654379721 0  0.07567171807980319 0.25625 0  0.2511897295290552 0.3235829392832554 0  0.07655002503762308 0.1488653460959645 0  0.1377245246847496 0.3206030474919778 0  0.6694099692696568 0.3242771941727899 0  0.9168971191497528 0.1295727156104653 0  0.7562500000000001 0 0  2.118919042110979 0.3422084711244843 0  2.13125 0 0  0.06875000000000001 0 0  1.30625 0.41 0  1.597888256393107 0.2173787389261347 0  0.34375 0.41 0  0.2493272016354703 0.08091360081773515 0  0.5588896233436766 0.3264056208677571 0  1.829299675393195 0.07400700849299596 0  0.1334079128307869 0.08523463035786674 0  1.71875 0.41 0  0.06875000000000001 0.41 0  1.16875 0.41 0  2.038220665644273 0.332420740103091 0  0.8810647413215221 0.2027360103977071 0  0.34375 0 0  0.7453891198966415 0.2471459041008237 0  0.42112093004955 0.1988123139090554 0  0.8314023090855964 0.3351170841770613 0  0.89375 0.41 0  0.7906250000000001 0.06615386481594063 0  1.452769549894695 0.1548122580621249 0  1.369219062229598 0.07430640243902442 0  1.30625 0 0  1.07420695807087 0.07430640243902439 0  1.720943423819132 0.1714577452753128 0  1.157188124459196 0.205 0  1.304056576180868 0.1714577452753128 0  1.67579304192913 0.07430640243902437 0  1.209670467133757 0.136210026696477 0  0.4312800784902823 0.08036147352247747 0  0.8723959680194693 0.07066860609690805 0  1.025335513626278 0.1700681449722324 0  0.7945632284247136 0.1940204203251442 0  0.378125 0.3452261501101892 0  0.3307109909790086 0.2037165635083759 0  0.3009701032039409 0.2702970083403109 0  0.20625 0.41 0  1.58125 0 0  0.4812500000000001 0 0  0.9838963872396855 0.2722244191167347 0  0.06772484939107212 0.3260067317374387 0  0.20625 0 0  1.58125 0.41 0  1.631724228912893 0.3381867502687533 0  1.825608881788174 0.14499488549201 0  1.85625 0 0  1.44375 0 0  1.44375 0.41 0  1.85625 0.41 0  2.13125 0.41 0  0.7562500000000001 0.41 0  0.4812500000000001 0.41 0  1.16875 0 0  1.03125 0.41 0  1.03125 0 0  1.71875 0 0  1.99375 0 0  1.99375 0.41 0  0.9408708167433545 0.0651989315768642 0  1.340625 0.3489494290853124 0  1.134375 0.3489494290853123 0  1.700180620188976 0.3438659752031281 0  0.29668452290037 0.1318471691375986 0  0.3175441051360096 0.06496934809856265 0  0.06509151636162461 0.08140814015999148 0  2.135782184673599 0.07126652247502523 0  1.668441847249787 0.2129203728327609 0  1.295782514339747 0.2378437748815763 0  1.409375 0.3520314716057996 0  2.129248544730567 0.1906135162504124 0  2.060771381434487 0.1989445750470348 0  2.013252586573865 0.1496169464686054 0  1.942766402200229 0.1734448904596831 0  1.895522487186454 0.06076163953489683 0  2.069553871656643 0.06605731020975725 0  0.4670911801404742 0.2498408582391372 0  0.7622743084658112 0.1264100838268133 0  1.274680914880868 0.3520219391081363 0  0.3148669572599245 0.3331753056385887 0  1.614713220494657 0.09473434380863296 0  1.72990325744076 0.2380068107952482 0  1.356580098625191 0.2120393231351682 0  2.034370752044885 0.2668681600792073 0  1.51768709249349 0.3426260931494756 0  1.561883724969884 0.1650446847858835 0  1.197344062229598 0.2523725417393646 0  1.804085235518364 0.3468178408964637 0  1.817887819205233 0.2589243285818559 0  1.905897727272727 0.3485060975609756 0  0.7296439733931823 0.06337466644369745 0  0.4250935971865949 0.1394919578475796 0  0.3773030136511669 0.05130372097998036 0  1.192836486056382 0.3562350748565544 0  1.1029124365364 0.226143510831178 0  1.28257088594801 0.2944411014911587 0  0.1905185804731426 0.06029880676029167 0  1.474860187679412 0.2504218616229368 0  1.406767003493824 0.2829282258560709 0  0.5209826960981064 0.2830664557824064 0  0.5131119502780163 0.3617405848213254 0  0.1948220106098172 0.3081993407644811 0  1.845656689180403 0.1998310418452388 0  2.144958525570388 0.2909790873294231 0  2.2 0.15375 0  0.8833025251326762 0.2625402923007629 0  0.171875 0.3653875762360952 0  1.57794966442982 0.3540357145964566 0  0.446875 0.366068291212731 0  0.4272051715206439 0.2891929346190664 0  1.508991196088596 0.1421783375065625 0  1.50436820029908 0.06143401634903343 0  1.223857000523521 0.08235548624535324 0  0.6137904613287555 0.3066826366281556 0  1.153316824384777 0.1289850171317838 0  0.9751573703656133 0.327632618473408 0  2.148922302309752 0.1258841779285271 0  0.9281250000000001 0.3643758685795699 0  1.621993280276081 0.2841214267927899 0  1.550118654119087 0.2461998729100966 0  1.327182649291491 0.1216967252533594 0  0.9939955742738924 0.04663549843168518 0  1.753125 0.04556020050186112 0  1.271875 0.04556020050186116 0  0.9734326767716519 0.1506854560854393 0  0.103125 0.3675775577080512 0  1.94956388244759 0.1180512551534177 0  1.949997712993411 0.04965831614304109 0  0.717433898748555 0.295596016333797 0  1.771961817615021 0.1530278789497521 0  1.909246823951428 0.2812757146784527 0  0 0.35875 0  1.050632804931928 0.1226269704412814 0  0.05695108326502596 0.2024009637347154 0  1.948575539857022 0.2445328248721197 0  1.697271520964565 0.1233917627620729 0  1.065625 0.3689344961371042 0  1.085849084308977 0.3170853572226867 0  0.1015495998772944 0.04226029099983852 0  1.577403511714593 0.05463601888079143 0  1.751571320346033 0.3651102912045228 0  2.2 0.35875 0  0.7441773632462837 0.1786786606458751 0  0 0.05125 0  1.466879772203159 0.3611261772912453 0  0.6282230348858767 0.3577675483994025 0  1.990280163552011 0.3564754268533217 0  1.17471064520912 0.2990917256188288 0  0 0.25625 0  2.2 0.25625 0  2.2 0.05125 0  0 0.15375 0  1.853978576207987 0.35875 0  1.515638456102889 0.2882700110184686 0  2.150453692751374 0.2387066338105111 0  1.323782677156475 0.04897634338873398 0  1.409375 0.03715320121951221 0  1.406484531114799 0.1087852750766809 0  1.134375 0.03715320121951219 0  0.721875 0.3729363922161693 0  0.7941695928236929 0.3696489254637395 0  0.7934827162619036 0.3013409431456604 0  1.627401732573545 0.04552157221025036 0  0.9352049974617431 0.2507047965699472 0  0.8763260682738339 0.3611103317460093 0  2.045405893604797 0.1105340662939892 0  1.255408269734577 0.1577307500159216 0  2.028125 0.03707597992059326 0  1.003030137506755 0.3689344961371042 0  1.248258025468107 0.2565907092181813 0  1.203125 0.03661323374043041 0  0.4800125512335631 0.0549472816999725 0  2.072662025974815 0.2975086504196739 0  0.240625 0.3729825336867542 0  1.113252391110535 0.10238286244357 0  1.071052763974265 0.1885202618768825 0  0.8738809401657862 0.3106483608284829 0  0.6786819423003397 0.2677558482644021 0  1.887722846421017 0.1760882698830035 0  1.472640588990488 0.1118278026240017 0  0.5843750000000001 0.41 0  1.865937103925594 0.2604137786483804 0  1.463913572748262 0.2030442564990043 0  1.376426316059077 0.3186741374914345 0  0.1038643885363755 0.2162701735320032 0  0.1769473813227781 0.1070849728467114 0  0.458787839809176 0.171541653775316 0  0.240625 0 0  0.04179569703428024 0.2877217852556549 0  0.1258346557601885 0.2699740073054968 0  1.722140693354707 0.282908100935778 0  0.41206179117512 0.2448172567039922 0  0.3702471778075604 0.2265217604228704 0  0.3714881805374215 0.1786967818665642 0  1.77397096061971 0.2481483237422926 0  2.105123889160691 0.03743885948498647 0  1.001138337938679 0.229719337663998 0  1.051242910646791 0.2854826559431138 0  1.395420985247586 0.18
[...]
<PointData  Scalars="f_43"> 
<DataArray  type="Float64"  Name="f_43"  format="ascii">1.0833335133101783e-01  2.0471022400504130e-01  7.8588401693188816e-11  2.8455103834914343e-10  8.0827588309280982e-02  8.3948319392304876e-02  7.0472710410820538e-02  6.6782212106315644e-02  1.3725877167120204e-01  1.3872801851991640e-01  8.9609530964982601e-02  7.1550055484233835e-02  -4.2801074581520137e-03  -3.5899866147554313e-03  -7.6929978381551148e-03  -1.4766132298994634e-02  3.5116050616743388e-02  -6.7131369514780602e-03  -2.1487053325471534e-02  8.7209218123566398e-02  1.5896280647066424e-01  1.5216304708909295e-01  7.4905915861454994e-02  1.6219432088003163e-02  -1.9163209257148182e-02  -3.3643132749074309e-02  -2.4347755248106496e-02  -1.0663545742689256e-02  -1.4275907615018113e-03  1.1845785919111221e-01  2.8022536973108204e-03  5.7548476392052059e-02  4.7788604621301176e-02  1.0155552946188395e-01  -1.5367139256995536e-03  9.3207792375831419e-02  1.3155988622636427e-03  -3.4558956793040189e-03  3.0729530301153059e-03  7.2357518504646695e-03  7.1006010610651076e-03  1.4401534394734891e-02  4.6427540643239886e-03  3.5199780165825413e-03  3.6334008690533368e-03  8.6024696610055573e-03  5.3669112424741790e-03  -9.4144351329401182e-04  4.6662349180220646e-03  1.7065961316664015e-10  2.6857439295525243e-03  8.0727775839014776e-02  1.7715077566494005e-03  1.8034637182399974e-03  2.5165962655404140e-10  5.4956998805080507e-03  1.1840888109861685e-02  1.0031968727268213e-02  5.2377601479572855e-03  7.7842073608057963e-03  2.4369483352507733e-03  1.0662359449497330e-01  1.1423608708695855e-01  1.0733146299007776e-01  8.5389462355479305e-03  -2.7759673061422446e-03  1.1424384238646532e-02  -6.1194931889109261e-03  1.6394730279840953e-03  7.1126734755112310e-03  2.3289759775778312e-03  9.1839499270577177e-02  9.9898802942394685e-02  6.8957934617607372e-03  1.5250826262054190e-03  3.7588637489501630e-03  4.9764198952442263e-04  3.9236990620442665e-03  1.3879748785472911e-03  4.5431593775301484e-03  1.0911246308670065e-01  1.2890736257698698e-01  1.3139220486148655e-03  7.2224815448830249e-02  2.6549348453373716e-03  7.2064169452869939e-03  7.9238696635971252e-03  3.1803016187429995e-03  3.1638244546519688e-03  5.7448284870549142e-03  1.2210698746827649e-02  2.2223336978670909e-03  -3.7584247634464408e-03  1.9644909521082919e-10  1.7860991539148791e-03  8.8846054963217427e-03  1.2116296128175804e-02  2.1659881772962903e-03  2.0807267776446056e-03  -1.5776400015747305e-03  3.9230398981175002e-03  2.3968594328025589e-02  5.7449906581914633e-03  -2.9113290591152026e-03  7.8754371065688378e-03  1.1365278714609992e-01  9.0643653312641320e-02  1.2892320758948619e-01  1.0549762935446218e-01  2.3811928481851596e-03  -7.6277912857132036e-04  -3.1905805478792478e-03  1.0609675790585027e-03  8.8609706515346191e-04  1.2830404551280325e-01  2.4472936604922248e-03  7.7700075789290174e-03  8.7134723059754629e-02  9.5521340031117549e-02  3.4525058992225389e-02  4.7245362858882572e-03  1.2119244630646088e-01  6.4100804533352169e-03  1.0872420547155509e-01  2.2085116091379903e-03  2.1233627960852374e-03  2.1676381738121742e-03  1.0304859423098116e-01  -2.1363112197576666e-03  9.6912257372269744e-02  2.2451616437003906e-03  1.7618388898969673e-03  -5.7323494427272104e-04  1.0262988810965507e-02  1.4279664491015706e-02  1.4883131506071595e-02  -4.0479582438916056e-03  6.1851736662942502e-03  -1.5397626341888805e-03  9.9678958617753256e-03  6.7208291644584731e-03  4.2821312496171219e-03  1.1715364167417719e-01  -5.6546790120363965e-04  -4.8544235852302602e-03  1.1260565493250746e-03  8.5584133070106524e-02  8.9250366381830357e-02  8.7789004545547417e-02  1.0127088717112208e-01  8.3440409767395699e-03  1.0656366451436550e-01  1.5451561831847501e-04  1.0865595815205192e-01  1.0565616062966904e-01  7.7955185994200296e-03  7.4182036270138132e-03  4.8117219299833236e-03  4.3790208466104588e-03  1.2231133683757995e-02  6.7814886496706302e-03  4.5607781151345882e-03  8.9855865763222064e-04  2.5412172549493638e-03  6.8670943392899156e-02  4.5203258284472131e-03  2.8561148298000402e-03  -3.5427237966800551e-03  6.1196274653952951e-03  2.6509220142150996e-03  2.7132711392782575e-03  -1.8023112522664760e-03  3.0241714530050388e-03  3.2271707549690973e-03  6.6363378750715196e-03  8.7813465358354298e-02  1.0169263314657039e-01  1.2885405327929633e-01  8.2984046941764742e-04  6.9219736391426907e-03  4.5094289472793637e-03  5.5806719903636797e-03  9.1757690886374286e-04  1.8079711407421560e-03  2.4145819243814519e-03  3.3295109478875605e-03  3.8911695301567972e-03  1.6825085142195596e-03  8.1615980235587623e-02  -2.0551126609293455e-03  1.6802461751707638e-03  8.9491869363123935e-02  7.6670745975584691e-03  6.1655422204945007e-03  7.6276805752386470e-03  2.1657446615287617e-03  7.8142124523834407e-03  8.3634998784414966e-03  1.9917103475359053e-03  5.2647624028881275e-03  5.0240242597717547e-03  3.8873967980267814e-03  -2.3172353488115334e-03  1.1842796745708947e-01  1.0639393693326271e-01  2.3457297114733290e-03  -3.2898496625102876e-03  1.7455699398051638e-03  1.0661327406065745e-01  8.0240945745184613e-03  5.9114936395537731e-03  4.6334834321200245e-02  5.8585759215527569e-02  9.2956589994445712e-02  4.6032799729651807e-03  7.1696621654810842e-04  -1.8365466872551299e-10  2.4140464356385118e-03  1.0370922058916628e-01  7.7972242792293030e-03  7.5562275035306381e-02  8.7056141961953007e-02  9.4470601970682907e-03  1.0271500447425990e-02  8.1868334176253780e-03  6.0770751601853874e-04  -2.2063177844895048e-03  2.7942488956744231e-03  6.6183567835897440e-04  2.7444988892440336e-03  7.5181281552102333e-03  8.1281648837993672e-03  1.3311217781710962e-02  -2.9749372336416802e-03  5.6781280866386079e-03  1.3083645727540141e-02  -2.6150104577078660e-03  1.0787142748192932e-01  3.2229509364875356e-03  3.2056547043067905e-03  -2.2738245906923087e-03  5.5039708061534326e-03  3.8211930552761860e-03  1.0817018210937306e-01  -5.7070810568867533e-03  1.2111709168637540e-01  3.2850162889665434e-03  6.4391804599485958e-03  3.4451686909207206e-03  3.0770521846455578e-03  1.2302152729108795e-01  8.4467206478217108e-03  5.9739352517277390e-03  2.8455103834914343e-10  -2.0783750255703591e-03  1.3762354247195038e-01  7.1452906545176201e-03  1.7653899306365309e-02  2.7588650898815420e-03  2.4178279762382183e-03  1.1253702668190363e-01  1.7065961316664015e-10  7.8588401693188816e-11  1.2415389241078303e-01  4.5896572427226272e-03  7.9811610227893855e-03  6.4521749542444952e-04  1.4732900079276629e-02  1.3403712051823075e-02  1.2700947051063451e-02  4.4919075161380963e-04  5.0486124247562745e-03  2.2632492343369376e-03  1.6593806509934534e-03  7.4963084752278806e-03  9.5900570813529538e-04  2.3171741391658186e-03  1.9959935070500883e-03  8.2307022171636424e-03  2.2135901352602644e-03  3.3184042488973772e-03  2.6975581207631608e-03  7.3421366223115408e-03  1.0962811768918876e-01  1.6668413725763203e-03  9.6329495775450261e-02  -4.1423060795860870e-03  -5.7348669372433653e-03  2.3704340925328007e-03  -1.0192749767413148e-02  4.0404142523249812e-03  1.0752696859465572e-02  3.5367198533357402e-02  4.3866517678624543e-03  8.8774324630135730e-03  4.3379162157539761e-03  1.2407495562353633e-01  1.0762025370892399e-01  1.1673260676255390e-01  1.0266864874828195e-01  1.1035253069254522e-01  1.0659864814555643e-01  6.3214768234084277e-03  9.2291882778919088e-02  9.2350641904270808e-02  9.3362744782494012e-02  5.5986999296339180e-03  1.2238759155821473e-03  -2.1093227261253207e-03  7.7757978797239971e-04  9.4314809577770234e-03  2.2584529721254602e-03  8.3217265780001645e-02  7.8032169275292149e-03  1.2777544090310716e-01  1.3260433916968783e-01  1.8936955582656175e-03  5.8645089472072348e-04  9.2925160495318071e-02  5.1382820711524625e-03  2.7398531706014999e-03  8.9724063842809273e-02  8.4900050331332022e-02  8.6296724403788938e-02  4.8892733460170464e-04  1.3513318917847189e-03  1.6328729173902606e-03  -4.4022980063921919e-04  -2.2341613907862364e-03  7.5615838486362144e-03  1.0494671228926557e-02  5.1934914085303239e-03  3.9522466800460787e-02  1.4112324951838812e-01  1.0806020974933547e-01  2.5431047571421632e-03  6.1899910736734030e-03  -1.4024585011468074e-05  8.9946623206240361e-02  9.1867026651322556e-02  1.8628123329063591e-03  1.1077707116046682e-02  7.3751777808548297e-03  7.8916157941031056e-03  -3.4474140893068642e-03  6.5930408077211925e-03  6.2699418029681037e-03  5.2438574869223575e-04  5.3154307332122636e-04  1.3096376025819267e-01  1.3375548924588374e-01  1.0835781262062766e-01  1.1409812300138847e-01  -1.3872817551178903e-03  -7.0787869854323704e-04  7.3578013865028876e-03  5.1167767823535066e-03  4.2470641250519029e-03  8.9527894792737303e-02  8.2211109963306980e-02  1.0160411333811666e-01  9.1204735117721304e-03  3.3438347358024558e-03  2.7759744236488587e-03  1.3806234572943871e-01  -9.7647181643203973e-05  5.0292573942168420e-03  6.1676220438284454e-03  7.0665977017055868e-03  1.0989110238053695e-01  1.8560045487625036e-03  9.7485833038877298e-02  8.7544200127076824e-02  8.2578688086823154e-03  1.8088467471298294e-03  9.0286442856868307e-02  1.3736179922241201e-03  1.1456340926179830e-02  1.0559665895034029e-03  1.0340601356336082e-01  7.8158508227784123e-03  -1.0650629971553488e-03  1.0846100417936323e-01  1.0189321586100053e-01  7.8041365581271838e-02  -2.1066445224865071e-03  -1.3263539339830972e-03  -6.1173834020238288e-04  -4.1164146109207078e-03  5.0744936699562723e-04  1.2842852846862488e-01  2.2840221261023388e-03  8.0605223256192002e-02  9.6826854329196479e-02  9.1453771088426355e-04  -3.7335246364055869e-03  2.7090957272344080e-03  5.4227725229367182e-02  4.0953424117900735e-03  9.7141523079903203e-02  4.3667048515072717e-03  3.9497063792706478e-03  3.4806281557520366e-03  8.7860282231038353e-02  9.8441361763129172e-03  -1.2032353302215883e-03  6.2115628705825343e-03  -4.4216573556060930e-03  -2.1576609314688695e-03  6.8817321527553559e-03  7.0563515606592514e-03  8.6293413353042081e-02  1.1574165101173306e-01  2.1407122895991081e-03  1.1241400495034181e-02  8.8366093664451723e-02  2.5744765352783230e-03  1.2476892363344641e-01  5.3618491368671454e-03  -5.1556946597137456e-04  -3.2956389599727016e-03  2.4203666705987396e-02  9.2749784963501655e-03  -9.9636580061883626e-03  2.1562642874877682e-03  7.1929803946787938e-03  8.1937632409674818e-03  1.0854187845039387e-01  2.2517320238139948e-03  2.0422024769217789e-03  2.9823096931290570e-03  1.2693403245713546e-04  9.6137271279810501e-03  -3.0775472467565014e-03  -1.1839948982658929e-03  -2.1016117019996348e-03  -4.3447461686559242e-04  5.8847874308284205e-03  6.8226585384631869e-03  5.9893907009680352e-03  1.1732476577094551e-02  1.3473494578857688e-02  1.4605289894855785e-02  6.6266794039546604e-03  1.1507168273259320e-02  2.9235413004196319e-03  8.4117503454301121e-02  8.8057240294083534e-03  3.5361332758366516e-03  7.6914194709695582e-03  7.0272977161884090e-03  -5.7630044119746568e-05  -9.5204236405221421e-04  7.4367872494879722e-03  7.8507798321689193e-03  7.8022584383697227e-03  8.1231366581617392e-02  8.4191611460528948e-02  1.8998821792471411e-03  4.8080562624869651e-03  8.8476750288667222e-02  1.7864103863078865e-03  2.2528956396894945e-03  1.4173384052498718e-02  1.1930550166200920e-03  3.1867487531671173e-03  -8.8090405657780424e-04  1.0789875912659468e-03  4.7746698477674936e-04  5.6937361271436693e-03  9.1961223870434990e-03  -4.4614202942514980e-03  -4.7086316238237917e-03  -2.9009721473983838e-03  -1.0385536127255617e-03  1.3295138613027463e-01  1.0943222705465484e-01  1.3302014468505421e-02  3.5249940351157459e-03  1.0392453017475045e-01  -4.3134835850907535e-03  4.5527608941643862e-04  1.0348742434969280e-03  3.1609432286261690e-03  1.1967577172817337e-03  2.2361399540575628e-03  4.3840805565108385e-03  5.1375769460385856e-03  -1.9857597286129197e-03  2.5871909010116586e-03  -6.6733640298451621e-03  2.0684684095201359e-02  -2.6735281869168940e-03  1.2710724639627725e-03  -8.5148253122419709e-04  2.6810954679219374e-03  2.5688196012853873e-03  2.3344654097110559e-03  3.4436717140399935e-03  4.3720486586448443e-03  2.9680452768947214e-03  9.4695526694693430e-02  1.0411560967451131e-01  9.5291265520617233e-03  1.0129842510351490e-03  1.8400337981294853e-03  4.4642201637295547e-03  -5.5181921986514103e-03  1.0770842014665874e-02  -4.8214318561113088e-04  5.7029364121530734e-03  6.8380027319742956e-03  2.6810334388413081e-03  2.2185173909333405e-03  -6.1281557201018060e-03  3.1435207880768168e-03  1.7976905886888973e-03  3.0673593118861510e-03  1.0043849875015858e-01  1.0649391032827238e-01  3.7873345645112045e-03  1.5041504351527377e-02  4.4490224165220606e-04  1.3265897121575146e-03  4.6286738914722118e-03  1.0241572661994331e-03  1.3405350193301363e-02  7.4289118796486645e-03  5.9595651551120916e-03  2.8960292695629454e-03  5.6717196249500583e-03  2.1055155409691181e-03  5.8140978048620119e-03  4.5156731242740241e-04  1.0768154373620069e-01  7.5877407312884296e-02  1.0483582192938362e-01  9.7095006229274680e-02  1.1819949380448444e-01  1.0855270891946746e-01  1.0498306180993260e-01  1.0851932382472995e-01  1.4483126962788189e-03  1.5965533491374109e-03  5.9417670989534870e-02  1.4739298826009351e-02  2.1525029721868251e-03  8.1511669330030911e-03  2.6894406263950638e-03  7.6812272117384433e-03  3.0865487600680872e-03  1.3751640260277764e-02  -3.3417006800214757e-03  2.2129323735349048e-03  3.1699401899623384e-03  -2.1335135651958078e-03  6.4171973594279131e-03  9.1679623588108813e-02  7.1785996746603464e-02  5.0258967665160262e-02  -2.0831654508812040e-03  2.4421134556594035e-03  1.2553746023912543e-01  1.1475652872939385e-02  -9.4897938845272655e-04  2.1387154210840606e-03  2.8968972731318748e-02  9.0526163421206923e-02  4.9761702577238590e-03  2.8289405671541317e-03  8.2067207870089809e-02  2.7758570686322701e-03  7.9657708220310739e-03  7.7213561713327869e-03  3.7348803125777045e-03  6.6004254598840241e-03  6.1709569262526024e-03  6.5602216222558612e-03  4.0599288129518005e-03  1.5752455677708679e-03  6.4238341206595039e-03  4.7455065582125526e-03  6.9648939226870038e-03  7.3754561671201474e-03  3.6085463933932726e-03  7.5609032489287447e-03  8.0326659044570071e-03  1.7848949343366410e-03  1.4571296832644794e-03  1.0140110191438592e-01  6.7976698672805355e-02  8.3502896469338098e-04  -1.1396433025727046e-03  1.0020458455882010e-02  1.5969493568142178e-03  3.5816976448052539e-03  3.6864286722996511e-03  1.4919622437668998e-03  -5.8263841777445088e-03  2.0999160886397143e-03  5.2610666035308373e-03  1.0281785490377897e-01  4.8549950754558004e-03  6.6592348811333477e-03  4.6736891442848471e-03  3.0678810856417976e-03  1.0754976704604853e-01  4.1305277471763652e-04  8.2223973133043501e-04  8.3847338174915416e-03  8.4756919184385049e-02  -2.1174834144299742e-02  8.2940069968689099e-03  7.2237893927396407e-03  3.8636690093959100e-03  1.2798789977240219e-01  7.8185414496247455e-03  -2.4827602711708372e-03  7.6773279209526243e-03  1.9007887627397087e-03  1.0688170249044550e-01  1.1362218667870477e-01  8.6720333244753832e-03  1.4275889614156058e-02  1.3211400392179520e-01  1.0802922065054368e-01  4.3277987312075623e-03  2.4450864857910189e-03  3.4144524042088544e-03  5.1329594000126960e-03  3.3400448641638350e-03  8.7570581465320034e-03  5.0837857790598136e-03  2.2584917201138011e-03  5.9737946232671351e-03  1.1308727376663652e-01  1.0010197314049718e-01  -1.4466146119386399e-03  4.4053492629156929e-03  2.1348976717662851e-03  6.6610356090039224e-04  6.9623068571546794e-03  1.1135604112312446e-02  9.7286962986574948e-03  5.3693320363030596e-03  4.7977410870809261e-03  1.3861569517213722e-03  1.0514135378581226e-02  2.9712626181427268e-03  1.5807418732037445e-01  1.0824308112381581e-01  8.8712929537989767e-03  3.8600984179777485e-03  -5.4948950859264505e-03  1.0170888539624125e-01  1.6534982417521344e-03  7.8971552251590645e-03  1.0972913935967493e-01  8.3851238605071696e-02  2.8319190267530742e-03  1.1022941861064398e-01  8.9204465579401579e-02  3.4046180107437699e-03  -9.1540180585715884e-03  1.5684861329705067e-02  5.0886221537677835e-02  1.1527088442436797e-02  4.7936588860257459e-03  -1.5062799294340047e-03  1.2927062225567376e-03  1.2085339365547754e-01  4.7418615977082553e-03  2.8762796732812244e-03  7.4067247353930988e-03  4.2341117055194021e-03  1.7065961316664015e-10  9.0544024468509621e-02  2.2205309722331682e-03  2.6717482120126304e-03  -3.2519625132133921e-03  2.7513018675275904e-03  7.2248873190220008e-03  1.0994780175460925e-01  1.2498858687618171e-01  4.5794451954788725e-04  1.7744949968141787e-03  8.6223225667720324e-02  9.9519966686798689e-02  1.2225380552639234e-01  3.9842209883592158e-03  7.8145276154219859e-03  8.1226769704608338e-03  7.6330607746487780e-03  8.4001761124708092e-03  1.2420951596711440e-02  4.3646381557635918e-03  1.3584146760239062e-03  1.1398735057002148e-01  4.9538554243308813e-03  6.8913381604789447e-03  2.7276282846283345e-03  4.7046457088283047e-02  9.0770429633363264e-02  8.2617620399341757e-02  4.2148558423908697e-03  1.1244282987272153e-01  1.5199978317496842e-02  6.8715034541947748e-03  -4.2740240183576309e-03  -3.5561426681437222e-03  -7.6431460292384994e-04  -2.8925851459628360e-03  1.9644909521082919e-10  1.3422078793609540e-01  8.8041106357856613e-02  1.7663373818800193e-03  2.6799279503581766e-03  1.6609553070539768e-03  1.9451652965578336e-03  5.9801010893641444e-03  1.0268353317211523e-01  9.3428160159861315e-02  1.6680160568029418e-02  3.3169658961259576e-03  6.4342852335570425e-02  -3.5591121419906225e-03  2.5281515024524019e-03  9.9243008687223584e-03  7.3451220177343417e-03  3.1388186497300838e-02  8.0553664049393386e-03  5.0957813010489416e-03  5.7253515175585317e-03  8.2775002801051658e-04  9.0949084084538799e-04  3.7931239797225040e-04  8.0538243302998788e-02  5.3852826596367302e-02  4.2833474571811444e-03  2.7969332640892111e-03  -5.2088098356808657e-03  2.2875870296015823e-03  1.4322288914599277e-02  5.9002545319521210e-03  5.4072603407589390e-03  1.1681028339897204e-01  8.0260503582885931e-03  8.6008996797543762e-04  -4.6903121976559483e-03  1.0832205579935480e-01  9.0499347523097257e-03  8.4014135037743340e-02  -2.6526657839499646e-03  1.0333250646914062e-01  1.9480783437089918e-03  1.3471414153353739e-02  2.2558396114528284e-03  8.9626955285884338e-02  -4.6354860596882459e-04  -2.8422300321692805e-03  1.7065961316664015e-10  3.0797859704139972e-03  1.6539898222462119e-03  7.8564070940849856e-03  7.6211109238086194e-03  9.0641637175105608e-02  8.8387105098479885e-02  3.5936052259123849e-03  4.8506729636993369e-04  3.3432312585689010e-03  1.4366438222791749e-03  8.3236406883079907e-03  7.9817417379534836e-03  7.9698921201270725e-03  7.4263187410434459e-02  3.1871082661655151e-03  -1.8945274537575457e-03  5.3547564951991087e-03  7.5586783264901414e-03  3.5892659670125515e-03  2.3514999316365439e-03  2.8258268031137001e-03  4.9860702231730178e-03  5.6017502062582153e-03  3.5462401653488613e-03  3.3867912331829856e-03  1.0060236212215598e-01  1.1048514417773164e-01  6.2889347307547002e-03  1.1734389794913927e-01  1.0626136186952519e-01  5.6404689209814431e-03  -1.6322544999653374e-03  -3.5252335220285207e-03  -2.3910257376575997e-03  2.2412934989535145e-03  -4.3286990682086770e-04  6.5145086582920307e-03  7.7963281775617746e-02  4.1562899405508348e-03  1.4731113623374162e-03  -3.2313737757665682e-03  8.1603335010798736e-02  -4.6602176427431891e-04  6.6626473310852042e-03  6.4750525738856320e-03  1.1964222601422936e-01  1.0844288020493975e-01  7.7628227781836876e-03  1.7865670946369792e-03  1.2798363468192507e-02  7.9220020231802434e-03  1.4071772388354010e-02  1.0817979349669204e-01  5.8079360711672549e-03  9.3188998721836933e-02  8.0964218049582939e-03  7.0074268081796731e-02  8.8023250839323582e-04  5.1648039794916153e-03  6.7500117704033481e-03  1.0752599721025899e-01  2.2065203892921142e-03  7.0321365498424420e-03  7.2555877162085950e-03  7.56