<?xml version="1.0"?>
<VTKFile type="UnstructuredGrid"  version="0.1"  >
<UnstructuredGrid>
<Piece  NumberOfPoints="1404" NumberOfCells="2604">
<Points>
<DataArray  type="Float64"  NumberOfComponents="3"  format="ascii">0 0.41 0  0 0 0  2.2 0 0  2.2 0.41 0  0.2353553390593274 0.2353553390593274 0  0.25 0.2 0  0.2353553390593274 0.1646446609406726 0  0.2 0.15 0  0.1646446609406726 0.1646446609406726 0  0.15 0.2 0  0.1646446609406726 0.2353553390593274 0  0.2 0.25 0  0.6923879532511287 0.188268343236509 0  0.7 0.15 0  0.6923879532511287 0.1117316567634909 0  0.6707106781186547 0.07928932188134523 0  0.6382683432365089 0.05761204674887133 0  0.6 0.04999999999999999 0  0.5617316567634909 0.05761204674887134 0  0.5292893218813453 0.07928932188134524 0  0.5076120467488713 0.111731656763491 0  0.5 0.15 0  0.5076120467488713 0.188268343236509 0  0.5292893218813453 0.2207106781186547 0  0.561731656763491 0.2423879532511287 0  0.6 0.25 0  0.6382683432365089 0.2423879532511287 0  0.6707106781186547 0.2207106781186547 0  1.1 0 0  0 0.205 0  1.1 0.41 0  0.55 0 0  0.55 0.41 0  0.275 0 0  0.8250000000000001 0 0  0.275 0.41 0  0.8250000000000001 0.41 0  0.6875 0 0  0.61875 0 0  1.65 0.41 0  1.65 0 0  1.375 0 0  1.375 0.41 0  1.925 0 0  1.925 0.41 0  1.5125 0.205 0  1.7875 0.205 0  0.9625000000000001 0.205 0  1.2375 0.205 0  2.2 0.205 0  1.99375 0.2152743902439024 0  0.4125 0.41 0  2.0625 0 0  2.0625 0.41 0  2.2 0.3075 0  1.7875 0.41 0  1.375 0.1486128048780488 0  1.5125 0 0  1.7875 0 0  1.5125 0.41 0  0.9625000000000001 0.41 0  0.4125 0 0  0.1375 0 0  0.1375 0.41 0  0.6875 0.41 0  0.9625000000000001 0 0  1.2375 0 0  1.1 0.1486128048780488 0  1.2375 0.41 0  1.65 0.1486128048780487 0  0.823495464168302 0.2603780552348366 0  0.3738707794507017 0.2720196349488618 0  0.3662291281331582 0.1311456406657909 0  1.676715909090909 0.2793064024390244 0  1.126715909090909 0.2793064024390244 0  1.348284090909091 0.2793064024390244 0  0.8287581077665108 0.1302150898054257 0  1.894702181800738 0.1282910975492754 0  2.092797818199262 0.1282910975492754 0  1.85625 0.3075 0  0 0.3075 0  0 0.1025 0  2.099172119769978 0.25625 0  0.4752414543992246 0.3180372603390748 0  1.99375 0.08395950269330846 0  1.459960956013612 0.3075 0  1.569025960719943 0.2986889805672169 0  1.03125 0.3278689922742084 0  1.959375 0.3126371951219512 0  1.749222215368287 0.1025 0  1.275777784631713 0.1025 0  0.9228016959331474 0.3075 0  1.000777784631713 0.1025 0  2.2 0.1025 0  1.225938124459196 0.3075 0  1.550777784631713 0.1025 0  1.44375 0.07430640243902442 0  1.16875 0.07430640243902439 0  0.7562500000000001 0.3358727844323386 0  0.89375 0 0  1.899250267340833 0.2229966846119207 0  0.61875 0.41 0  1.766482954545455 0.2934032012195123 0  1.046078563095834 0.2389031808701145 0  1.421109702350723 0.2261157654379721 0  0.07567171807980319 0.25625 0  0.2511897295290552 0.3235829392832554 0  0.07655002503762308 0.1488653460959645 0  0.1377245246847496 0.3206030474919778 0  0.6694099692696568 0.3242771941727899 0  0.9168971191497528 0.1295727156104653 0  0.7562500000000001 0 0  2.118919042110979 0.3422084711244843 0  2.13125 0 0  0.06875000000000001 0 0  1.30625 0.41 0  1.597888256393107 0.2173787389261347 0  0.34375 0.41 0  0.2493272016354703 0.08091360081773515 0  0.5588896233436766 0.3264056208677571 0  1.829299675393195 0.07400700849299596 0  0.1334079128307869 0.08523463035786674 0  1.71875 0.41 0  0.06875000000000001 0.41 0  1.16875 0.41 0  2.038220665644273 0.332420740103091 0  0.8810647413215221 0.2027360103977071 0  0.34375 0 0  0.7453891198966415 0.2471459041008237 0  0.42112093004955 0.1988123139090554 0  0.8314023090855964 0.3351170841770613 0  0.89375 0.41 0  0.7906250000000001 0.06615386481594063 0  1.452769549894695 0.1548122580621249 0  1.369219062229598 0.07430640243902442 0  1.30625 0 0  1.07420695807087 0.07430640243902439 0  1.720943423819132 0.1714577452753128 0  1.157188124459196 0.205 0  1.304056576180868 0.1714577452753128 0  1.67579304192913 0.07430640243902437 0  1.209670467133757 0.136210026696477 0  0.4312800784902823 0.08036147352247747 0  0.8723959680194693 0.07066860609690805 0  1.025335513626278 0.1700681449722324 0  0.7945632284247136 0.1940204203251442 0  0.378125 0.3452261501101892 0  0.3307109909790086 0.2037165635083759 0  0.3009701032039409 0.2702970083403109 0  0.20625 0.41 0  1.58125 0 0  0.4812500000000001 0 0  0.9838963872396855 0.2722244191167347 0  0.06772484939107212 0.3260067317374387 0  0.20625 0 0  1.58125 0.41 0  1.631724228912893 0.3381867502687533 0  1.825608881788174 0.14499488549201 0  1.85625 0 0  1.44375 0 0  1.44375 0.41 0  1.85625 0.41 0  2.13125 0.41 0  0.7562500000000001 0.41 0  0.4812500000000001 0.41 0  1.16875 0 0  1.03125 0.41 0  1.03125 0 0  1.71875 0 0  1.99375 0 0  1.99375 0.41 0  0.9408708167433545 0.0651989315768642 0  1.340625 0.3489494290853124 0  1.134375 0.3489494290853123 0  1.700180620188976 0.3438659752031281 0  0.29668452290037 0.1318471691375986 0  0.3175441051360096 0.06496934809856265 0  0.06509151636162461 0.08140814015999148 0  2.135782184673599 0.07126652247502523 0  1.668441847249787 0.2129203728327609 0  1.295782514339747 0.2378437748815763 0  1.409375 0.3520314716057996 0  2.129248544730567 0.1906135162504124 0  2.060771381434487 0.1989445750470348 0  2.013252586573865 0.1496169464686054 0  1.942766402200229 0.1734448904596831 0  1.895522487186454 0.06076163953489683 0  2.069553871656643 0.06605731020975725 0  0.4670911801404742 0.2498408582391372 0  0.7622743084658112 0.1264100838268133 0  1.274680914880868 0.3520219391081363 0  0.3148669572599245 0.3331753056385887 0  1.614713220494657 0.09473434380863296 0  1.72990325744076 0.2380068107952482 0  1.356580098625191 0.2120393231351682 0  2.034370752044885 0.2668681600792073 0  1.51768709249349 0.3426260931494756 0  1.561883724969884 0.1650446847858835 0  1.197344062229598 0.2523725417393646 0  1.804085235518364 0.3468178408964637 0  1.817887819205233 0.2589243285818559 0  1.905897727272727 0.3485060975609756 0  0.7296439733931823 0.06337466644369745 0  0.4250935971865949 0.1394919578475796 0  0.3773030136511669 0.05130372097998036 0  1.192836486056382 0.3562350748565544 0  1.1029124365364 0.226143510831178 0  1.28257088594801 0.2944411014911587 0  0.1905185804731426 0.06029880676029167 0  1.474860187679412 0.2504218616229368 0  1.406767003493824 0.2829282258560709 0  0.5209826960981064 0.2830664557824064 0  0.5131119502780163 0.3617405848213254 0  0.1948220106098172 0.3081993407644811 0  1.845656689180403 0.1998310418452388 0  2.144958525570388 0.2909790873294231 0  2.2 0.15375 0  0.8833025251326762 0.2625402923007629 0  0.171875 0.3653875762360952 0  1.57794966442982 0.3540357145964566 0  0.446875 0.366068291212731 0  0.4272051715206439 0.2891929346190664 0  1.508991196088596 0.1421783375065625 0  1.50436820029908 0.06143401634903343 0  1.223857000523521 0.08235548624535324 0  0.6137904613287555 0.3066826366281556 0  1.153316824384777 0.1289850171317838 0  0.9751573703656133 0.327632618473408 0  2.148922302309752 0.1258841779285271 0  0.9281250000000001 0.3643758685795699 0  1.621993280276081 0.2841214267927899 0  1.550118654119087 0.2461998729100966 0  1.327182649291491 0.1216967252533594 0  0.9939955742738924 0.04663549843168518 0  1.753125 0.04556020050186112 0  1.271875 0.04556020050186116 0  0.9734326767716519 0.1506854560854393 0  0.103125 0.3675775577080512 0  1.94956388244759 0.1180512551534177 0  1.949997712993411 0.04965831614304109 0  0.717433898748555 0.295596016333797 0  1.771961817615021 0.1530278789497521 0  1.909246823951428 0.2812757146784527 0  0 0.35875 0  1.050632804931928 0.1226269704412814 0  0.05695108326502596 0.2024009637347154 0  1.948575539857022 0.2445328248721197 0  1.697271520964565 0.1233917627620729 0  1.065625 0.3689344961371042 0  1.085849084308977 0.3170853572226867 0  0.1015495998772944 0.04226029099983852 0  1.577403511714593 0.05463601888079143 0  1.751571320346033 0.3651102912045228 0  2.2 0.35875 0  0.7441773632462837 0.1786786606458751 0  0 0.05125 0  1.466879772203159 0.3611261772912453 0  0.6282230348858767 0.3577675483994025 0  1.990280163552011 0.3564754268533217 0  1.17471064520912 0.2990917256188288 0  0 0.25625 0  2.2 0.25625 0  2.2 0.05125 0  0 0.15375 0  1.853978576207987 0.35875 0  1.515638456102889 0.2882700110184686 0  2.150453692751374 0.2387066338105111 0  1.323782677156475 0.04897634338873398 0  1.409375 0.03715320121951221 0  1.406484531114799 0.1087852750766809 0  1.134375 0.03715320121951219 0  0.721875 0.3729363922161693 0  0.7941695928236929 0.3696489254637395 0  0.7934827162619036 0.3013409431456604 0  1.627401732573545 0.04552157221025036 0  0.9352049974617431 0.2507047965699472 0  0.8763260682738339 0.3611103317460093 0  2.045405893604797 0.1105340662939892 0  1.255408269734577 0.1577307500159216 0  2.028125 0.03707597992059326 0  1.003030137506755 0.3689344961371042 0  1.248258025468107 0.2565907092181813 0  1.203125 0.03661323374043041 0  0.4800125512335631 0.0549472816999725 0  2.072662025974815 0.2975086504196739 0  0.240625 0.3729825336867542 0  1.113252391110535 0.10238286244357 0  1.071052763974265 0.1885202618768825 0  0.8738809401657862 0.3106483608284829 0  0.6786819423003397 0.2677558482644021 0  1.887722846421017 0.1760882698830035 0  1.472640588990488 0.1118278026240017 0  0.5843750000000001 0.41 0  1.865937103925594 0.2604137786483804 0  1.463913572748262 0.2030442564990043 0  1.376426316059077 0.3186741374914345 0  0.1038643885363755 0.2162701735320032 0  0.1769473813227781 0.1070849728467114 0  0.458787839809176 0.171541653775316 0  0.240625 0 0  0.04179569703428024 0.2877217852556549 0  0.1258346557601885 0.2699740073054968 0  1.722140693354707 0.282908100935778 0  0.41206179117512 0.2448172567039922 0  0.3702471778075604 0.2265217604228704 0  0.3714881805374215 0.1786967818665642 0  1.77397096061971 0.2481483237422926 0  2.105123889160691 0.03743885948498647 0  1.001138337938679 0.229719337663998 0  1.051242910646791 0.2854826559431138 0  1.395420985247586 0.18
[...]
<PointData  Scalars="f_43"> 
<DataArray  type="Float64"  Name="f_43"  format="ascii">1.0670185433446014e-01  2.0335034119614456e-01  8.9095662211657345e-11  3.1710050355864290e-10  7.8741379976008816e-02  8.2100997184449437e-02  6.8721207055644246e-02  6.4880004800560651e-02  1.3557798745677366e-01  1.3740531070380033e-01  8.8228100874924650e-02  6.9639240947415235e-02  -6.5539976591968974e-03  -6.5450880278824543e-03  -1.0300469058280836e-02  -1.5720817286032640e-02  3.1939601965791022e-02  -2.1212616033665314e-03  -1.4071041709124947e-02  8.6450709348829341e-02  1.5422731669534728e-01  1.5117455363431032e-01  7.3990202644523134e-02  1.1292638882218237e-02  -2.3913927026506521e-02  -3.6727243493609146e-02  -2.6436949515313501e-02  -1.2372252511260938e-02  1.5452419586576211e-02  1.1699124468373016e-01  5.8215263921504003e-03  5.8031739180309717e-02  4.7860234517053048e-02  1.0067482214361562e-01  -2.3448237492993003e-03  9.1628445173717696e-02  2.1407109802546818e-03  -4.0531698658495619e-03  4.6694947198762347e-03  7.2585323969437052e-03  7.2868345261760791e-03  1.1554573431912690e-02  1.0275508856942709e-02  3.6341222709863012e-03  3.6404571714132197e-03  9.0875058765420031e-03  5.4541224232014119e-03  -2.7391272478340957e-03  1.2537959691881092e-02  1.5483586482018328e-10  2.7273106431700660e-03  7.9835056755117456e-02  1.8153814975446236e-03  1.8181847807050755e-03  3.0528040323137127e-10  5.4547482284798606e-03  1.1202728433406060e-02  9.2313919123694563e-03  5.4540083729762425e-03  8.9574169133495845e-03  2.5337902684272658e-03  1.0547521413916143e-01  1.1296478556079761e-01  1.0544943633092310e-01  8.7496887543336271e-03  4.9814135495180514e-03  1.4639601031388505e-02  1.4490064200267314e-02  1.0160943618778125e-02  7.2854885814387631e-03  -3.3193251907189169e-03  8.9982857331248792e-02  9.8370468520221355e-02  6.9128138307610817e-03  8.8434832078558290e-03  1.0712376541100351e-02  -3.3868437604982898e-03  4.0335413543665932e-03  1.4172810464284091e-03  4.5447803531234073e-03  1.0753394397517785e-01  1.2751492116420496e-01  1.3312778442743374e-03  7.1684347215203142e-02  2.7252275184642327e-03  9.5801706598409465e-03  8.2937261734952993e-03  3.5838214043045348e-03  3.1827686660914583e-03  5.9614591986916028e-03  1.3423036508960425e-02  1.9107331510794000e-03  6.3431366685350590e-03  1.9595815797980107e-10  1.0485047665309302e-02  8.6547069621531157e-03  1.0288932559885841e-02  1.5800588496770837e-02  1.8577216099512719e-03  -1.9819639644065028e-04  3.9764317293199012e-03  2.4069130130504310e-02  5.7307511381274011e-03  7.9412549579141647e-03  1.0205773563828437e-02  1.1214426582965052e-01  8.8862037906060898e-02  1.2750804943760713e-01  1.0381761973877172e-01  1.0832205237067600e-03  -3.6613945461936963e-03  -4.0854922937587764e-03  1.0718377680749051e-03  9.0248669079505178e-04  1.2696127641756264e-01  1.0536564581651862e-02  7.9550127100275845e-03  8.5979433888006176e-02  9.4342934320239907e-02  3.3505014719959279e-02  4.9006343705557060e-03  1.1981870915801542e-01  6.3627153547957229e-03  1.0705592812669762e-01  8.6161641068543786e-03  2.1413113428293733e-03  -7.2172060468004952e-03  1.0223611575946241e-01  -3.5544866710385120e-03  9.4979244297107523e-02  2.2267575090899661e-03  2.3259813750499767e-03  -1.9871728692859606e-03  1.0003397131737550e-02  1.1615212216746001e-02  1.3013164274492801e-02  1.3971583366784095e-02  6.3362238439016736e-03  1.3286228990924649e-02  1.2136842178295713e-02  6.9431798866387544e-03  1.4401871951528176e-02  1.1534815880222089e-01  -1.5171925008614442e-03  7.1583249650711443e-03  -2.9095247837396922e-03  8.4507939915251962e-02  8.7206404115788477e-02  8.5762901466162320e-02  9.9362508143417169e-02  8.2387820436660309e-03  1.0516567247242557e-01  2.7479345096325359e-03  1.0706647264883945e-01  1.0454815931043639e-01  8.1258763184422784e-03  7.4921726333013845e-03  4.9492438508525740e-03  4.5406066130016772e-03  1.0318374928834985e-02  9.7035242876856165e-03  4.5457259735324981e-03  9.0534777465750180e-04  3.1382757699902905e-03  6.8213602025544620e-02  1.5923017612348218e-02  3.3514628890548622e-03  1.1560606371033228e-02  6.3641390510671475e-03  2.7228684576929589e-03  2.7284405247127701e-03  1.7503232438946708e-03  1.0497757424448854e-02  7.2395809134277464e-03  6.6043237253771269e-03  8.6236116565130042e-02  1.0090984443498162e-01  1.2748181493497868e-01  8.4815274624172653e-04  7.0283931451809055e-03  1.1452906791828971e-02  1.0027166256392347e-02  9.3358934839628998e-04  1.8387009373296947e-03  2.4666805412842585e-03  3.3980420461254112e-03  4.0212350372269548e-03  1.7232686925884298e-03  7.9072042911581000e-02  -5.0167924284352759e-03  1.0515410593591179e-02  8.7929863450841222e-02  7.7700306835394089e-03  6.2151875994276721e-03  1.1056822220430224e-02  2.1907761444320546e-03  8.9006093192639454e-03  8.4654252382166135e-03  1.1453154748465793e-02  5.2366207261045888e-03  5.0506007271981261e-03  3.8915540664778234e-03  -3.8663745414890577e-03  1.1729340157204364e-01  1.0551432538477948e-01  9.3385521513368406e-03  1.1579985655954136e-02  1.0900243417343939e-02  1.0538024537932823e-01  9.4975235109003905e-03  1.0180527875921743e-02  4.3658998140553192e-02  5.8315990472230107e-02  9.1196439432163351e-02  4.6834513054259215e-03  7.2607207635371884e-04  -2.0997713952655678e-10  -4.0426283976637018e-03  1.0182572390512135e-01  8.1686929809078011e-03  7.4875009412314925e-02  8.5813656777739764e-02  9.2159138429162620e-03  9.3492935082526932e-03  1.4769465609036565e-02  -1.7214741163009207e-03  1.5402122801665976e-02  3.1947407389351606e-03  6.7519500527471617e-04  3.2893928879878923e-03  7.6222076374529825e-03  8.5603622300666777e-03  1.2203205292668714e-02  7.2787426161816477e-03  5.9095785776423684e-03  1.3800720803391635e-02  -1.9613039387049116e-04  1.0615705111878745e-01  3.3084979168368969e-03  3.3020367120176518e-03  -4.0919033601593833e-03  5.6606244343302171e-03  3.8440215514140312e-03  1.0654428586434386e-01  1.1570763978041193e-02  1.1966368324070463e-01  3.3234114596421035e-03  6.6512795424870349e-03  4.2810105095309687e-03  5.4750098765626960e-03  1.2169148330839333e-01  8.2940153813517090e-03  5.9293787906727789e-03  3.1710050355864290e-10  -4.5709645555947597e-03  1.3625430670515315e-01  9.4623507804901252e-03  1.7305508738484101e-02  2.7747362747148042e-03  9.6586756596128785e-03  1.1101524237483178e-01  1.5483586482018328e-10  8.9095662211657345e-11  1.2272946878171645e-01  4.5765736965618382e-03  8.9567257210863196e-03  6.5478125060603192e-04  1.2603226360996457e-02  1.0916764676442040e-02  1.0846999864952954e-02  1.5920772055283378e-02  5.5923325603859271e-03  3.3001564805270902e-03  -7.7545304828644261e-04  7.6013545422163944e-03  -2.7263133090665438e-03  3.3013395587599055e-03  2.0425817107781311e-03  1.3151601847564512e-02  2.2730237737224510e-03  3.0997187420596342e-03  1.1421034579866773e-02  1.5349494451010970e-02  1.0773182319311693e-01  1.6848652852185725e-03  9.4519802641474499e-02  1.5483229350120437e-02  1.1863865810510774e-02  9.2699497475280895e-04  -1.2187527265779593e-02  4.1267664373596099e-03  9.7866593433480371e-03  3.5499611047090283e-02  4.4162272690864840e-03  9.7322540145029952e-03  1.0350820908181334e-02  1.2261358249087592e-01  1.0614397606786591e-01  1.1591308803814390e-01  1.0167380788305103e-01  1.0880367899967623e-01  1.0506735298434497e-01  6.3156301592372692e-03  9.0030421269051461e-02  8.9961008420799848e-02  9.1157177875742609e-02  5.6332528362498212e-03  1.2530601368591356e-03  3.3906363758913326e-03  5.5713578328929533e-03  1.0688527285975503e-02  2.2756369237871160e-03  8.1308904967060530e-02  7.9182567315386164e-03  1.2637701020340367e-01  1.3115492879341337e-01  -4.8088294226018057e-03  -4.9679894873862450e-03  9.2044620543943440e-02  5.1293002543693674e-03  2.7702567736278307e-03  8.7842455607535175e-02  8.3359722979220355e-02  8.4288637264334498e-02  4.9434325352085823e-04  1.3653499617280638e-03  1.6472678701025146e-03  -5.7025568029691696e-03  8.3273025950254592e-04  7.6996401615833862e-03  1.0564282742012147e-02  5.3754812038735280e-03  3.9426171995070036e-02  1.3844593358276852e-01  1.0669984851453319e-01  2.5653425688181935e-03  1.0562529743945217e-02  -3.4692356947507814e-03  8.8587975744654560e-02  9.0247745092285614e-02  1.3641764951169390e-02  9.7563388491993461e-03  7.5226854771245424e-03  8.5520624963309460e-03  1.1638394197460345e-02  6.8336608722695856e-03  6.5068001572546590e-03  5.3614955231924902e-04  5.3693940140401458e-04  1.2960728629766546e-01  1.3239830475182846e-01  1.0673075139108502e-01  1.1282639116150446e-01  -1.5095033597170378e-03  -1.6065390241689411e-03  7.4644291395132550e-03  5.3217752970925345e-03  4.3868266755663970e-03  8.7984007492763291e-02  8.0611495426442387e-02  1.0077154491419063e-01  8.7302490055100965e-03  3.3537560021443197e-03  -4.9630489026294593e-03  1.3661433296001096e-01  -2.1328140837868327e-03  5.0032823625236226e-03  6.1327161954583031e-03  7.0773222506794855e-03  1.0873722444273921e-01  1.8939727174864182e-03  9.6242308242483990e-02  8.6300644532120926e-02  8.5469899998480738e-03  1.0098991299681172e-02  8.8161179983650681e-02  1.3993565273124277e-03  9.9190681511483018e-03  -6.6447475847458849e-03  1.0238657079205497e-01  8.0410880518776689e-03  -1.7953884440404795e-03  1.0688569843139786e-01  1.0107867063204552e-01  7.7727123430539460e-02  1.9827347682317030e-03  1.8410901942751378e-04  1.1398341461552081e-02  1.4627777662097857e-02  5.1681101097093688e-04  1.2703613119174481e-01  1.0696098071707778e-02  7.9915727073190571e-02  9.4991026727658329e-02  -2.5099188000600454e-03  -4.9595748866448500e-03  2.7845660824409560e-03  5.3628200172645281e-02  4.0921737192106513e-03  9.5517745544985530e-02  4.5265667607482111e-03  4.0861278244273755e-03  3.5856670308085379e-03  8.5667142363339152e-02  9.2260856221264079e-03  8.5519072786062952e-03  6.4468948430812757e-03  1.0903264976517359e-02  1.4997926875413381e-02  7.0812316722922205e-03  7.2499556398489340e-03  8.4725923097903361e-02  1.1425270283452874e-01  2.1567329703398109e-03  1.0593678303248493e-02  8.7098394735515436e-02  2.0805739428835677e-03  1.2334556863349125e-01  5.5737108463489613e-03  -2.8508111851150964e-03  -4.1227001643510579e-03  2.3470165951706468e-02  9.4431175305703195e-03  -1.2359365595801062e-02  2.2105706609623771e-03  9.8164043347417646e-03  9.0305231231406768e-03  1.0694202616240199e-01  -9.7157869376761309e-04  3.1152032085486688e-03  3.0598233065276125e-03  -3.6507792014096319e-03  8.9805298368042120e-03  1.4025701560755176e-02  -2.1384440522499867e-03  -3.0093114018374884e-03  -2.8961003552430285e-03  5.9846281415471131e-03  1.2110590229939209e-02  6.1829511451112675e-03  1.2737463349439487e-02  1.1482441577555154e-02  1.1847701263858066e-02  6.8015007984327715e-03  1.1729002729936521e-02  2.9889232339262487e-03  8.1993138802509108e-02  1.3896924971119695e-02  1.5220864548665620e-02  7.8704771669242928e-03  7.0287712559625832e-03  -2.8704116602040874e-03  -1.3614850940053421e-03  7.5470496916793016e-03  8.0058844999046780e-03  8.7516820769180399e-03  8.0367512919902018e-02  8.3185430426220536e-02  3.5492742243655468e-03  4.9976247908418581e-03  8.6702230058267965e-02  1.8116922412313419e-03  2.2849804046019919e-03  1.2753070130075870e-02  1.2068926653504052e-03  4.0400217792482523e-03  -2.7762590889576942e-03  1.0956778492998706e-03  4.8533406127681833e-04  5.6602034088008724e-03  8.7743039508158330e-03  8.2824345280980392e-03  6.9817130716125896e-03  1.4883449735795793e-03  -9.8369937217314320e-04  1.3157738269610711e-01  1.0822915391659002e-01  1.0898520058323919e-02  5.5291288965204745e-03  1.0307358988082126e-01  -7.3613686646882255e-03  4.6441124057036492e-04  1.0562439599282802e-03  3.2118570014829104e-03  1.2082321301292169e-03  1.2554548977389909e-02  4.5145419302938502e-03  5.2593801662945867e-03  -4.0437436343827762e-03  3.0900608561994915e-03  -8.0267111585799588e-03  2.2341069248017771e-02  4.3931317672580754e-03  1.1803464945173659e-03  5.1847751658610289e-03  8.2408572487280979e-03  7.3386691636375930e-03  1.0527768968245806e-02  1.0466732394747481e-02  1.0280115513568184e-02  8.0786735863364167e-03  9.3538046189659413e-02  1.0338223791719339e-01  1.0209161545179231e-02  1.0327966798606685e-03  9.5751394781350974e-03  4.5705004644919136e-03  1.3782949275408123e-02  1.4597915166160614e-02  -1.4259634560145616e-04  1.0061176378862294e-02  6.8075990288198355e-03  2.7323596861536228e-03  2.2595018869700557e-03  1.1492144406417387e-02  3.1703424506807723e-03  1.0452948309281156e-02  6.4421867270922873e-03  9.8542824273004148e-02  1.0466739041254339e-01  1.5828262507711487e-02  1.2249609296278399e-02  4.5660714638680279e-04  1.3533265183868649e-03  5.0341544049618443e-03  1.6112191378171700e-02  1.0913156171855844e-02  9.3411567769951295e-03  5.9100163066133646e-03  4.3950362610628091e-03  5.9081749450810815e-03  2.4426688442536876e-03  1.0017169996570367e-02  4.5656957423462625e-04  1.0633121314619901e-01  7.5146527700277327e-02  1.0389988284731329e-01  9.5314877697739234e-02  1.1688421983741934e-01  1.0678699873466095e-01  1.0303514630574256e-01  1.0689682527068575e-01  2.1921373470234168e-03  2.3561844320381395e-03  5.9278121117646493e-02  1.4828619575808721e-02  2.4210848290015180e-03  1.5413604829986615e-02  2.7089721274661436e-03  7.7625654525527339e-03  3.1781746180974541e-03  1.3820268676080180e-02  8.3418184348715389e-03  2.2712508876246169e-03  3.1800207238268418e-03  3.1114747787498983e-03  6.3765132007419451e-03  8.9379514887622830e-02  7.0064240838706923e-02  4.6512526821027973e-02  1.5658825924111695e-02  2.5010064009286757e-03  1.2417390244792847e-01  1.0286007130672962e-02  1.4614641576728869e-02  2.0263125417550052e-03  2.8987399842659925e-02  8.8631367395298852e-02  1.1060004108978184e-02  1.0988890383573410e-02  8.0527015245939887e-02  8.8180856710724145e-03  8.6686861361032347e-03  9.1903783998014306e-03  3.8595118494965611e-03  9.7447684854852050e-03  9.8544423799025761e-03  6.5908500567732810e-03  4.0684848812657087e-03  1.0557442834494073e-02  6.5246369527906063e-03  4.9059410332240559e-03  7.0273289659658206e-03  1.1625303244861837e-02  3.6235476202523377e-03  9.1487839791501071e-03  8.0010584572534158e-03  1.8297444035480274e-03  1.4900582966958472e-03  9.9820527891422525e-02  6.7493189655765021e-02  -6.9709384172855571e-03  -2.0651240657991688e-03  1.1187065170213478e-02  1.0407459754350701e-02  3.6428869351079743e-03  3.7736645855496751e-03  1.5066830181296993e-03  1.4240040164587702e-02  2.1204287531958869e-03  5.2292021261388880e-03  1.0207718158508780e-01  4.8408376648582637e-03  6.6395830458545382e-03  4.7231883782018827e-03  3.1551630967606016e-03  1.0589777707364621e-01  4.1840131891324954e-04  -2.5786309037190871e-03  8.3778213410611070e-03  8.3726976669993639e-02  -2.3959652742985969e-02  8.2311404819367939e-03  7.3919233994749148e-03  3.8650782278895107e-03  1.2655093152179001e-01  8.3357031926727734e-03  -3.2141244807108709e-03  7.9438591640232162e-03  -5.6317714358148667e-03  1.0580090532156387e-01  1.1217653274461468e-01  8.8430469131714554e-03  1.2062553529010454e-02  1.2860707293756643e-01  1.0688293797796286e-01  4.3199331877510037e-03  -2.2005063760538314e-03  3.4261643327002413e-03  1.3306731763383046e-02  3.4922622143142741e-03  8.4836617666763023e-03  5.1417568886989989e-03  9.8015912897838238e-03  5.9881856821968902e-03  1.1175456152102112e-01  9.8894495196215099e-02  1.5799503020980356e-02  1.1895599953484685e-02  1.0986963293651607e-02  1.2195293477466672e-02  7.1096309107145364e-03  9.7988519914931054e-03  1.3082108046290992e-02  5.3746212888864716e-03  4.8073069889050029e-03  1.4093110410500118e-03  9.4571309365917046e-03  2.9847611812834213e-03  1.5671166020129021e-01  1.0660888897468537e-01  8.7790531872237038e-03  3.9816187010746776e-03  -8.1248542520488704e-03  9.9924077069150893e-02  1.0688051537427084e-02  8.5306705347244303e-03  1.0852393719253611e-01  8.2929279412808532e-02  2.9025994601138260e-03  1.0868630625792866e-01  8.7419255637023838e-02  1.0432526139782945e-02  -1.0503495326518248e-02  1.5874379133806786e-02  5.0786839386293268e-02  1.4059351940826295e-02  4.7731257836098450e-03  -2.9884551535347900e-03  1.3225146613573902e-03  1.1940418045963774e-01  4.9246181046399213e-03  1.1846655876037509e-02  7.5642084771755979e-03  4.2502479493059268e-03  1.5483586482018328e-10  8.8859968655755850e-02  -5.7229001945912500e-04  -6.3405379639688286e-03  9.7546678011779433e-03  3.2301562302073004e-03  7.2842377563696213e-03  1.0869208631924655e-01  1.2327327343170989e-01  4.6799620729138619e-04  1.7961802375857914e-03  8.4362211262657930e-02  9.8367028585821997e-02  1.2069187965752953e-01  4.0202329748380604e-03  1.0590241398136555e-02  9.8253116031643741e-03  9.4753054846327990e-03  9.2966619057015271e-03  1.0396935457255410e-02  4.3616426359999547e-03  6.5358339110011144e-03  1.1248723385345841e-01  1.0477047421491605e-02  1.0132893396713681e-02  -4.5833174977798589e-03  4.6721282037382197e-02  8.8976740831114731e-02  8.0797286828294401e-02  4.2849001112222349e-03  1.1092035538908197e-01  1.3219221897711473e-02  5.5697290088484131e-03  -5.8451015395706270e-03  1.0128998103693118e-02  1.0041567406050169e-02  1.2746581561808842e-02  1.9595815797980107e-10  1.3294044561849716e-01  8.6680695829677412e-02  1.0932739520136441e-02  1.1242429938099430e-02  -6.2970554411324970e-03  1.0460513228506545e-02  6.2172406950395448e-03  1.0178553829251735e-01  9.1018462694190200e-02  1.6768512854877952e-02  6.5614120953313851e-03  6.3949225429587336e-02  9.3749606180614474e-03  2.5435489506851782e-03  9.6127376957802924e-03  7.3944843027707883e-03  2.9184150328647154e-02  3.8923562310012134e-03  4.7472546677349873e-03  5.6829961856162420e-03  8.3694994740959752e-04  9.2200966633266006e-04  3.8385809726510612e-04  7.9525701021402925e-02  5.0550402910027874e-02  4.3332428784073123e-03  2.8152866356332584e-03  -7.1503385528235769e-03  3.0153151509778185e-03  1.3186526656491422e-02  6.1385025519505813e-03  5.6292074705897501e-03  1.1532789296144759e-01  8.0702811604162396e-03  1.4997253569240735e-02  1.5190965198759192e-02  1.0665337459591319e-01  1.1460288127364680e-02  8.1934892183068625e-02  -5.6662235570912661e-03  1.0218800104653848e-01  9.9770225997858741e-03  1.3397011720366751e-02  -3.3861786012748135e-03  8.8168146016259899e-02  -3.6408071442053862e-03  6.3218828006702697e-03  1.5483586482018328e-10  3.2273639688748233e-03  2.8966550924596360e-03  8.1995964089471938e-03  7.8040609145041996e-03  8.9060315531893419e-02  8.6385750875072026e-02  3.6944884176047092e-03  -7.3194655469162252e-04  3.4236097792271335e-03  1.4581350394611229e-03  8.8486702665617652e-03  8.3619930876524234e-03  8.2414177503876765e-03  7.3702907138643553e-02  1.0539645635226625e-02  -2.7199222782616898e-03  1.5371553388550454e-02  7.7083264696191983e-03  4.4823687250735008e-03  7.1123401449344689e-03  4.4736774428784870e-03  5.0747335612040525e-03  5.5633132119577017e-03  3.6595654165910438e-03  3.4928806924041269e-03  9.9221224844469935e-02  1.0893490157854015e-01  6.2464240309327264e-03  1.1604962492694396e-01  1.0492292204169971e-01  5.8309455747314774e-03  -2.6813786043878855e-03  3.5698243048140981e-03  4.3404990898780107e-03  9.0983502625161354e-03  -3.1469828851066720e-03  9.9083839625499718e-03  7.7163060202980138e-02  4.2630436118492650e-03  1.0711272088380727e-02  1.3658172843802359e-02  7.9951806907973488e-02  -1.8042359354811445e-03  6.7355717457191341e-03  1.4589313900185362e-02  1.1732384564115544e-01  1.0608027571896721e-01  7.9693370883436882e-03  -2.5896294127287366e-03  1.1666489096215470e-02  7.9404703601797366e-03  1.1358953956690244e-02  1.0654137572775195e-01  5.9488803980938315e-03  9.1437520731806235e-02  8.7520961037533991e-03  6.8241687522948735e-02  8.9925194042598296e-04  5.3212093904351603e-03  6.7253129649276497e-03  1.0651680575347366e-01  1.0608775015350368e-02  9.5195778212174963e-03  9.4623264003508654e-03  9.1829885863756299e-03  1.04