<?xml version="1.0"?>
<VTKFile type="UnstructuredGrid"  version="0.1"  >
<UnstructuredGrid>
<Piece  NumberOfPoints="1404" NumberOfCells="2604">
<Points>
<DataArray  type="Float64"  NumberOfComponents="3"  format="ascii">0 0.41 0  0 0 0  2.2 0 0  2.2 0.41 0  0.2353553390593274 0.2353553390593274 0  0.25 0.2 0  0.2353553390593274 0.1646446609406726 0  0.2 0.15 0  0.1646446609406726 0.1646446609406726 0  0.15 0.2 0  0.1646446609406726 0.2353553390593274 0  0.2 0.25 0  0.6923879532511287 0.188268343236509 0  0.7 0.15 0  0.6923879532511287 0.1117316567634909 0  0.6707106781186547 0.07928932188134523 0  0.6382683432365089 0.05761204674887133 0  0.6 0.04999999999999999 0  0.5617316567634909 0.05761204674887134 0  0.5292893218813453 0.07928932188134524 0  0.5076120467488713 0.111731656763491 0  0.5 0.15 0  0.5076120467488713 0.188268343236509 0  0.5292893218813453 0.2207106781186547 0  0.561731656763491 0.2423879532511287 0  0.6 0.25 0  0.6382683432365089 0.2423879532511287 0  0.6707106781186547 0.2207106781186547 0  1.1 0 0  0 0.205 0  1.1 0.41 0  0.55 0 0  0.55 0.41 0  0.275 0 0  0.8250000000000001 0 0  0.275 0.41 0  0.8250000000000001 0.41 0  0.6875 0 0  0.61875 0 0  1.65 0.41 0  1.65 0 0  1.375 0 0  1.375 0.41 0  1.925 0 0  1.925 0.41 0  1.5125 0.205 0  1.7875 0.205 0  0.9625000000000001 0.205 0  1.2375 0.205 0  2.2 0.205 0  1.99375 0.2152743902439024 0  0.4125 0.41 0  2.0625 0 0  2.0625 0.41 0  2.2 0.3075 0  1.7875 0.41 0  1.375 0.1486128048780488 0  1.5125 0 0  1.7875 0 0  1.5125 0.41 0  0.9625000000000001 0.41 0  0.4125 0 0  0.1375 0 0  0.1375 0.41 0  0.6875 0.41 0  0.9625000000000001 0 0  1.2375 0 0  1.1 0.1486128048780488 0  1.2375 0.41 0  1.65 0.1486128048780487 0  0.823495464168302 0.2603780552348366 0  0.3738707794507017 0.2720196349488618 0  0.3662291281331582 0.1311456406657909 0  1.676715909090909 0.2793064024390244 0  1.126715909090909 0.2793064024390244 0  1.348284090909091 0.2793064024390244 0  0.8287581077665108 0.1302150898054257 0  1.894702181800738 0.1282910975492754 0  2.092797818199262 0.1282910975492754 0  1.85625 0.3075 0  0 0.3075 0  0 0.1025 0  2.099172119769978 0.25625 0  0.4752414543992246 0.3180372603390748 0  1.99375 0.08395950269330846 0  1.459960956013612 0.3075 0  1.569025960719943 0.2986889805672169 0  1.03125 0.3278689922742084 0  1.959375 0.3126371951219512 0  1.749222215368287 0.1025 0  1.275777784631713 0.1025 0  0.9228016959331474 0.3075 0  1.000777784631713 0.1025 0  2.2 0.1025 0  1.225938124459196 0.3075 0  1.550777784631713 0.1025 0  1.44375 0.07430640243902442 0  1.16875 0.07430640243902439 0  0.7562500000000001 0.3358727844323386 0  0.89375 0 0  1.899250267340833 0.2229966846119207 0  0.61875 0.41 0  1.766482954545455 0.2934032012195123 0  1.046078563095834 0.2389031808701145 0  1.421109702350723 0.2261157654379721 0  0.07567171807980319 0.25625 0  0.2511897295290552 0.3235829392832554 0  0.07655002503762308 0.1488653460959645 0  0.1377245246847496 0.3206030474919778 0  0.6694099692696568 0.3242771941727899 0  0.9168971191497528 0.1295727156104653 0  0.7562500000000001 0 0  2.118919042110979 0.3422084711244843 0  2.13125 0 0  0.06875000000000001 0 0  1.30625 0.41 0  1.597888256393107 0.2173787389261347 0  0.34375 0.41 0  0.2493272016354703 0.08091360081773515 0  0.5588896233436766 0.3264056208677571 0  1.829299675393195 0.07400700849299596 0  0.1334079128307869 0.08523463035786674 0  1.71875 0.41 0  0.06875000000000001 0.41 0  1.16875 0.41 0  2.038220665644273 0.332420740103091 0  0.8810647413215221 0.2027360103977071 0  0.34375 0 0  0.7453891198966415 0.2471459041008237 0  0.42112093004955 0.1988123139090554 0  0.8314023090855964 0.3351170841770613 0  0.89375 0.41 0  0.7906250000000001 0.06615386481594063 0  1.452769549894695 0.1548122580621249 0  1.369219062229598 0.07430640243902442 0  1.30625 0 0  1.07420695807087 0.07430640243902439 0  1.720943423819132 0.1714577452753128 0  1.157188124459196 0.205 0  1.304056576180868 0.1714577452753128 0  1.67579304192913 0.07430640243902437 0  1.209670467133757 0.136210026696477 0  0.4312800784902823 0.08036147352247747 0  0.8723959680194693 0.07066860609690805 0  1.025335513626278 0.1700681449722324 0  0.7945632284247136 0.1940204203251442 0  0.378125 0.3452261501101892 0  0.3307109909790086 0.2037165635083759 0  0.3009701032039409 0.2702970083403109 0  0.20625 0.41 0  1.58125 0 0  0.4812500000000001 0 0  0.9838963872396855 0.2722244191167347 0  0.06772484939107212 0.3260067317374387 0  0.20625 0 0  1.58125 0.41 0  1.631724228912893 0.3381867502687533 0  1.825608881788174 0.14499488549201 0  1.85625 0 0  1.44375 0 0  1.44375 0.41 0  1.85625 0.41 0  2.13125 0.41 0  0.7562500000000001 0.41 0  0.4812500000000001 0.41 0  1.16875 0 0  1.03125 0.41 0  1.03125 0 0  1.71875 0 0  1.99375 0 0  1.99375 0.41 0  0.9408708167433545 0.0651989315768642 0  1.340625 0.3489494290853124 0  1.134375 0.3489494290853123 0  1.700180620188976 0.3438659752031281 0  0.29668452290037 0.1318471691375986 0  0.3175441051360096 0.06496934809856265 0  0.06509151636162461 0.08140814015999148 0  2.135782184673599 0.07126652247502523 0  1.668441847249787 0.2129203728327609 0  1.295782514339747 0.2378437748815763 0  1.409375 0.3520314716057996 0  2.129248544730567 0.1906135162504124 0  2.060771381434487 0.1989445750470348 0  2.013252586573865 0.1496169464686054 0  1.942766402200229 0.1734448904596831 0  1.895522487186454 0.06076163953489683 0  2.069553871656643 0.06605731020975725 0  0.4670911801404742 0.2498408582391372 0  0.7622743084658112 0.1264100838268133 0  1.274680914880868 0.3520219391081363 0  0.3148669572599245 0.3331753056385887 0  1.614713220494657 0.09473434380863296 0  1.72990325744076 0.2380068107952482 0  1.356580098625191 0.2120393231351682 0  2.034370752044885 0.2668681600792073 0  1.51768709249349 0.3426260931494756 0  1.561883724969884 0.1650446847858835 0  1.197344062229598 0.2523725417393646 0  1.804085235518364 0.3468178408964637 0  1.817887819205233 0.2589243285818559 0  1.905897727272727 0.3485060975609756 0  0.7296439733931823 0.06337466644369745 0  0.4250935971865949 0.1394919578475796 0  0.3773030136511669 0.05130372097998036 0  1.192836486056382 0.3562350748565544 0  1.1029124365364 0.226143510831178 0  1.28257088594801 0.2944411014911587 0  0.1905185804731426 0.06029880676029167 0  1.474860187679412 0.2504218616229368 0  1.406767003493824 0.2829282258560709 0  0.5209826960981064 0.2830664557824064 0  0.5131119502780163 0.3617405848213254 0  0.1948220106098172 0.3081993407644811 0  1.845656689180403 0.1998310418452388 0  2.144958525570388 0.2909790873294231 0  2.2 0.15375 0  0.8833025251326762 0.2625402923007629 0  0.171875 0.3653875762360952 0  1.57794966442982 0.3540357145964566 0  0.446875 0.366068291212731 0  0.4272051715206439 0.2891929346190664 0  1.508991196088596 0.1421783375065625 0  1.50436820029908 0.06143401634903343 0  1.223857000523521 0.08235548624535324 0  0.6137904613287555 0.3066826366281556 0  1.153316824384777 0.1289850171317838 0  0.9751573703656133 0.327632618473408 0  2.148922302309752 0.1258841779285271 0  0.9281250000000001 0.3643758685795699 0  1.621993280276081 0.2841214267927899 0  1.550118654119087 0.2461998729100966 0  1.327182649291491 0.1216967252533594 0  0.9939955742738924 0.04663549843168518 0  1.753125 0.04556020050186112 0  1.271875 0.04556020050186116 0  0.9734326767716519 0.1506854560854393 0  0.103125 0.3675775577080512 0  1.94956388244759 0.1180512551534177 0  1.949997712993411 0.04965831614304109 0  0.717433898748555 0.295596016333797 0  1.771961817615021 0.1530278789497521 0  1.909246823951428 0.2812757146784527 0  0 0.35875 0  1.050632804931928 0.1226269704412814 0  0.05695108326502596 0.2024009637347154 0  1.948575539857022 0.2445328248721197 0  1.697271520964565 0.1233917627620729 0  1.065625 0.3689344961371042 0  1.085849084308977 0.3170853572226867 0  0.1015495998772944 0.04226029099983852 0  1.577403511714593 0.05463601888079143 0  1.751571320346033 0.3651102912045228 0  2.2 0.35875 0  0.7441773632462837 0.1786786606458751 0  0 0.05125 0  1.466879772203159 0.3611261772912453 0  0.6282230348858767 0.3577675483994025 0  1.990280163552011 0.3564754268533217 0  1.17471064520912 0.2990917256188288 0  0 0.25625 0  2.2 0.25625 0  2.2 0.05125 0  0 0.15375 0  1.853978576207987 0.35875 0  1.515638456102889 0.2882700110184686 0  2.150453692751374 0.2387066338105111 0  1.323782677156475 0.04897634338873398 0  1.409375 0.03715320121951221 0  1.406484531114799 0.1087852750766809 0  1.134375 0.03715320121951219 0  0.721875 0.3729363922161693 0  0.7941695928236929 0.3696489254637395 0  0.7934827162619036 0.3013409431456604 0  1.627401732573545 0.04552157221025036 0  0.9352049974617431 0.2507047965699472 0  0.8763260682738339 0.3611103317460093 0  2.045405893604797 0.1105340662939892 0  1.255408269734577 0.1577307500159216 0  2.028125 0.03707597992059326 0  1.003030137506755 0.3689344961371042 0  1.248258025468107 0.2565907092181813 0  1.203125 0.03661323374043041 0  0.4800125512335631 0.0549472816999725 0  2.072662025974815 0.2975086504196739 0  0.240625 0.3729825336867542 0  1.113252391110535 0.10238286244357 0  1.071052763974265 0.1885202618768825 0  0.8738809401657862 0.3106483608284829 0  0.6786819423003397 0.2677558482644021 0  1.887722846421017 0.1760882698830035 0  1.472640588990488 0.1118278026240017 0  0.5843750000000001 0.41 0  1.865937103925594 0.2604137786483804 0  1.463913572748262 0.2030442564990043 0  1.376426316059077 0.3186741374914345 0  0.1038643885363755 0.2162701735320032 0  0.1769473813227781 0.1070849728467114 0  0.458787839809176 0.171541653775316 0  0.240625 0 0  0.04179569703428024 0.2877217852556549 0  0.1258346557601885 0.2699740073054968 0  1.722140693354707 0.282908100935778 0  0.41206179117512 0.2448172567039922 0  0.3702471778075604 0.2265217604228704 0  0.3714881805374215 0.1786967818665642 0  1.77397096061971 0.2481483237422926 0  2.105123889160691 0.03743885948498647 0  1.001138337938679 0.229719337663998 0  1.051242910646791 0.2854826559431138 0  1.395420985247586 0.18
[...]
<PointData  Scalars="f_43"> 
<DataArray  type="Float64"  Name="f_43"  format="ascii">1.0791070248805715e-01  2.0432019691166539e-01  -1.3796134390115539e-11  -1.4508743834835496e-10  8.0351212934603303e-02  8.3529110970223280e-02  7.0136772176977585e-02  6.6414197992529220e-02  1.3683138043303616e-01  1.3834521155824947e-01  8.9228539874310411e-02  7.1105211116833281e-02  -4.8048446937445618e-03  -3.5982780477242546e-03  -7.4349807241871207e-03  -1.4369062125315373e-02  3.5294042955023371e-02  -6.3092338966641015e-03  -2.1082340422837739e-02  8.7345704394850315e-02  1.5899413189258313e-01  1.5171977243566084e-01  7.3903609109138749e-02  1.5274866080847247e-02  -1.9806857261328397e-02  -3.4084779951178992e-02  -2.4808027409119471e-02  -1.1153563308183699e-02  -1.3235395155405053e-03  1.1805604916868406e-01  2.3619216226196064e-03  5.7692514356874509e-02  4.7325755746569886e-02  1.0119462142051859e-01  -1.1008419462554245e-03  9.2750608155604389e-02  1.7402552314660678e-04  -3.2558720186299421e-03  3.3564018767022110e-03  5.2309327765193746e-03  7.7621851564693457e-03  8.7826300839202055e-03  1.7155267655991136e-03  3.0211639065408241e-03  3.7862248821413183e-03  4.6349962040097099e-03  5.0780081937653486e-03  1.7632851729461143e-03  -9.8971313697273798e-04  -1.1081841498635721e-10  2.5757297419164459e-03  8.0320826973751008e-02  1.5919576975492273e-03  1.8077006696719708e-03  -4.2075799744009757e-11  5.5921360608602077e-03  4.8944663299997412e-03  1.1914138716348791e-02  4.6141261836881841e-03  1.8919451679234301e-03  1.0376580877674570e-03  1.0637570895682776e-01  1.1384948101325608e-01  1.0688449783376171e-01  7.8145082808326587e-03  -8.4702256175275684e-05  -2.0324215056885249e-04  -6.6067494352210873e-04  2.8722368122519599e-03  6.8362330833280248e-03  1.1231473997923296e-03  9.1312505367690908e-02  9.9443352348447714e-02  5.4829747085996337e-03  1.6490058766478132e-03  2.5539273228840937e-03  8.5113694264337271e-04  3.4424452562015219e-03  1.2807313436144184e-03  4.7352421854820678e-03  1.0869453589156453e-01  1.2851665647162713e-01  1.2746925815585626e-03  7.1777657453495694e-02  2.3458548368229578e-03  8.7088348883048719e-04  2.6992750513916259e-03  2.2039817997416607e-03  3.2407270901054558e-03  5.2837125393523287e-03  -5.6240566720774942e-04  1.8187674088080824e-03  2.9608525446091558e-04  -6.0944751243141063e-11  3.1810126958230849e-03  1.0223947190006985e-02  1.0950680855737268e-02  -1.8767301655092680e-03  1.1727676456814568e-03  -2.1792496393691863e-04  3.8128598844634869e-03  2.3387395479196313e-02  5.6988722151670940e-03  1.2621374607031694e-03  3.1634973463598630e-03  1.1324414685823193e-01  9.0186641206285639e-02  1.2853124094298754e-01  1.0506547157309187e-01  1.6586446765259205e-03  1.0045660008277354e-03  -3.0557707226270994e-03  1.0472863245791207e-03  8.1236356718489451e-04  1.2791423299536317e-01  2.4989380963807602e-03  4.9247480819320216e-03  8.6702469120881462e-02  9.5146450336568947e-02  3.3971850704677328e-02  4.0624541436630702e-03  1.2080671815511523e-01  5.8684799726446794e-03  1.0829941445760727e-01  2.7811736583265839e-03  2.1351395899306905e-03  2.1166695700069924e-03  1.0273019568839045e-01  -2.9439199829108648e-03  9.6284528259438687e-02  1.1714912731375232e-03  3.9783032597483784e-04  -3.8175961314972789e-04  7.7958967056962368e-03  6.8490711586931558e-03  3.7831896980074857e-03  -6.4062529325221030e-04  5.6944291031237907e-03  -9.4980945721180089e-04  4.1120589267883720e-04  7.0383575828275487e-03  -2.5349696284588481e-03  1.1693329410598451e-01  2.9382191798703387e-04  8.2358882054358175e-04  2.3966176489930045e-04  8.5149581728521204e-02  8.8780285202572931e-02  8.7312845148520932e-02  1.0080553672248814e-01  1.0038348175551087e-02  1.0643530609261399e-01  1.9424203013496744e-03  1.0823667015186363e-01  1.0527739475391922e-01  3.6064558629658300e-03  4.6079698043801718e-03  4.2785650769621569e-03  3.7297397585186621e-03  1.1888995570253864e-02  1.1974036055011714e-03  4.7840093272921722e-03  8.8603736543200746e-04  1.6369214637838422e-03  6.8261608837709264e-02  -1.6354329059697927e-03  1.7407647253912019e-03  -5.4862902682175784e-04  5.9011751836642035e-03  2.3284380892183236e-03  2.7745088056584074e-03  2.5159071544422171e-04  2.5591752593355534e-03  3.0908086022072311e-03  5.7066159009976159e-03  8.7440725260695240e-02  1.0133498481313037e-01  1.2846593354267061e-01  7.6230872987615252e-04  5.7272179508931027e-03  1.5734005805270674e-03  1.4994872899084361e-03  8.6800801825793778e-04  1.7146571429941095e-03  2.2113612305730357e-03  3.0704739800359363e-03  3.3211488772780158e-03  1.5179244033285120e-03  8.0948795408738242e-02  -2.0253710351726150e-03  3.2262698885959875e-03  8.9035705123053491e-02  8.6606519077473895e-03  5.6917174818266920e-03  2.7790164535450024e-03  2.1331427917930016e-03  1.5499431272670296e-03  7.2225502873526550e-03  6.9464223536674604e-04  5.4211310642725266e-03  5.0554748083250370e-03  4.0654303542633861e-03  -2.1316897265629877e-03  1.1799086680286966e-01  1.0610558666802399e-01  3.3495964207163886e-03  3.2153435581145913e-04  3.0419076130740702e-03  1.0622999150389402e-01  1.9272180937832495e-03  1.6718419653938710e-03  4.5708793471142692e-02  5.8146101095513263e-02  9.2514050020460703e-02  4.3541176846903394e-03  6.9671467696265030e-04  -4.3514532033852359e-11  2.0719885506095609e-03  1.0325461591054949e-01  3.1725395833943578e-03  7.5151252260937537e-02  8.6540750904585226e-02  8.9476796588558033e-03  1.1754406769367034e-02  -1.7901484829378046e-03  -5.6279489523976084e-05  -1.9623787180538458e-03  1.8765539618926840e-03  6.1722467240398089e-04  1.2477398102071098e-03  4.3540210713531183e-03  3.0142679351415451e-03  2.2332617447965645e-03  -3.1006179401424855e-05  5.2473624106426225e-03  8.9694545072883068e-04  9.8235003841618744e-04  1.0744072094568942e-01  2.8447271853599080e-03  2.7715694440556219e-03  -3.0633162120027990e-03  4.9971605214827290e-03  3.9078180646430405e-03  1.0774748624326398e-01  -2.6747201943966876e-05  1.2071763116048168e-01  3.2423298741615296e-03  6.2492727338393835e-03  2.4145896055560818e-03  2.4741974055209320e-03  1.2263285562579626e-01  1.0209258209837644e-02  5.7863209496922322e-03  -1.4508743834835496e-10  -2.5492855905065487e-03  1.3723408793241837e-01  1.1663420083198211e-03  1.7021587393981859e-02  2.8240943958005578e-03  2.6151557932586611e-03  1.1212663058845729e-01  -1.1081841498635721e-10  -1.3796134390115539e-11  1.2375898393590959e-01  4.8084381079333740e-03  1.3580465901432805e-03  6.1911577416464574e-04  4.1573760360022341e-03  1.0134201079112745e-02  8.2414323240529892e-03  -1.4256032086153183e-03  4.2554608773699197e-03  1.2547809868388320e-03  5.7108353351528426e-04  8.6144122937036483e-03  2.1376635991766698e-03  1.0094241074388726e-03  1.8092996964083736e-03  -1.7324400307072157e-03  1.9643388241246725e-03  1.8333545583609388e-03  1.5120738944962592e-03  -1.2754046049039171e-03  1.0952282547627581e-01  1.6465850719731970e-03  9.5864486351755554e-02  -1.2181853568621209e-03  3.7741371086546908e-04  1.5572198360561146e-03  -1.0733748428682608e-02  3.7150140320805058e-03  1.0431733491775346e-02  3.4851575977842900e-02  4.4405516253800091e-03  4.5919091053260508e-03  2.0504695862829654e-03  1.2367376950701338e-01  1.0723430290209965e-01  1.1616401225476150e-01  1.0229622934981117e-01  1.0993819074041429e-01  1.0618568446111611e-01  5.8060794302290152e-03  9.1669363957078698e-02  9.1778138623582403e-02  9.2822700541537684e-02  5.4620473570893193e-03  1.1110343761486126e-03  1.6527322404129210e-03  1.8426631998300165e-03  4.4683290212546743e-03  2.2850896548875939e-03  8.2760510144560664e-02  7.7824844255226519e-03  1.2738464552145828e-01  1.3221053681640790e-01  1.6080413720521679e-03  1.4073438112835257e-03  9.2912644687858245e-02  5.2955057633973165e-03  2.7113455206850320e-03  8.9296678100545326e-02  8.4524611682649034e-02  8.5839012511313359e-02  4.7721214116449022e-04  1.3419818228742788e-03  1.6325817786596538e-03  1.5276400716270309e-03  5.7426131827321330e-04  4.5058597096124947e-03  9.8034682498334066e-03  4.5832319080051434e-03  3.9014482262122008e-02  1.4093780439470963e-01  1.0785656444509918e-01  2.5584625448543783e-03  2.5117834088087161e-03  -6.6781998638830388e-04  8.9500468640366232e-02  9.1406761695042416e-02  -1.9229412855894883e-03  1.2300664413918038e-02  6.0420758475152212e-03  2.6893998108173671e-03  -3.9063425987779685e-04  6.7451555256384105e-03  6.2341182891013647e-03  4.8204064254208192e-04  5.2213524169344571e-04  1.3057385998452947e-01  1.3336624348209755e-01  1.0793539358625473e-01  1.1371098571092879e-01  -5.7672077193279283e-04  -2.4544666097229206e-04  5.0123908465538438e-03  4.4961647972796715e-03  3.6403403678328060e-03  8.9063124385980033e-02  8.1857384727497040e-02  1.0123674440189816e-01  1.1110840344090685e-02  3.4688406324581999e-03  1.7596273871051307e-03  1.3766439811322526e-01  3.9574725399078419e-04  5.2296794616798134e-03  5.8413017571812076e-03  5.2673348401906708e-03  1.0955683406449009e-01  1.7174073609154776e-03  9.7091481458672024e-02  8.7100918267524266e-02  4.8953103646451465e-03  3.2555082800451987e-03  8.9779628458338437e-02  1.2872761198892825e-03  1.1882009949229380e-02  2.0742366168065140e-03  1.0302671739440014e-01  3.6952034945345012e-03  -8.3540007416414133e-04  1.0804223283477099e-01  1.0155117874377202e-01  7.8103863356803707e-02  -7.7083882890408969e-05  4.9865795852444531e-05  2.3664032787681994e-04  -1.2682063525283646e-03  4.7787760227273167e-04  1.2804043405489662e-01  2.9378699245486864e-03  8.0173081371946120e-02  9.6367525875309612e-02  -2.9659697736435480e-04  -4.2766082668638941e-03  2.3738703716757121e-03  5.3753359875870391e-02  4.2934860664631458e-03  9.6717226099344134e-02  3.7267491774511672e-03  3.3657238719127917e-03  3.0052668562298274e-03  8.7136270282707831e-02  1.0871780657159080e-02  1.2182095383682799e-03  6.0510534481338068e-03  -1.1858538900770275e-04  -1.0172182283231981e-03  7.3985046329983111e-03  7.4138050792415750e-03  8.5923580087141710e-02  1.1533622718347498e-01  2.1633505970491086e-03  7.0612253632264680e-03  8.7895875177503427e-02  1.7689523244461059e-03  1.2437447119399238e-01  4.7765939934330780e-03  -1.5038038960098305e-03  -3.1714554504797456e-03  2.3605824117914277e-02  6.7498240889274667e-03  -1.0592694252984291e-02  1.9268124314887494e-03  1.3612232123694436e-03  2.1714580514846605e-03  1.0812163349030175e-01  1.2272681511625719e-03  8.5441392710354264e-04  1.4441645912127378e-03  -6.9062602775524370e-05  1.1498290300573635e-02  -9.2521772650909224e-04  -1.1035478530468904e-03  -1.8699166354810583e-03  -1.6829547898282294e-04  5.4695721847979346e-03  -9.7423069421106442e-05  5.5565033897032427e-03  -2.1298131374130298e-04  5.6445222968702956e-03  7.1394921319248546e-03  6.1688001626748314e-03  2.3874247916767367e-03  2.6557313678443632e-03  8.3641624112146484e-02  -2.0771560813538010e-03  -2.3599561197859093e-03  3.7434883293654513e-03  5.3365064808138926e-03  8.2288988913335921e-04  5.1988103565392939e-04  4.5742410546027283e-03  6.3117915946153871e-03  2.1066078598808700e-03  8.0815363509996629e-02  8.3773719101403785e-02  2.0197907881174169e-03  4.1364506480345807e-03  8.8019130440808391e-02  1.7279676844813500e-03  2.1788002375695507e-03  2.0799672668736367e-03  1.1681299775069195e-03  2.2967635515968158e-03  -1.7593360498627929e-03  1.0330920318766374e-03  4.5377674748033726e-04  5.7076737971221096e-03  1.1074025041863144e-02  1.0486995661978936e-03  4.6921718146908067e-04  1.2960964314336055e-03  -1.5888602138259669e-04  1.3256216090200904e-01  1.0904873287098989e-01  9.4268410221968902e-03  2.7969934799528173e-03  1.0357937911108167e-01  -4.2597181007645530e-03  4.2340505473106448e-04  9.5384316626901668e-04  3.0172036322765085e-03  1.1876332155033495e-03  -8.5844854971867568e-04  3.8315779883665311e-03  4.7051941913095136e-03  -1.7792800626018367e-03  1.4139520990380941e-03  -7.1366307681546238e-03  2.0940321306111828e-02  2.5673301100762535e-04  2.0191047762035974e-03  1.7237946129200342e-03  3.0897578439262156e-03  2.6119364887515831e-03  2.7869728336348122e-03  2.1383052700396058e-03  1.9614485776054073e-03  2.7676720738189190e-03  9.4319410452088442e-02  1.0379658125624808e-01  5.4957624637919558e-03  9.4525864034367818e-04  2.8779166529203978e-03  4.0487763472733607e-03  -3.6196772059775327e-04  -3.6548159400413041e-04  1.9491211793415189e-03  1.4188259883622344e-03  5.6826950642657539e-03  2.4999502635108225e-03  2.0800416787196065e-03  2.3377393903960616e-04  3.1687591184605011e-03  2.7624755698891709e-03  2.7684636919828561e-03  9.9974955840142168e-02  1.0605044998447108e-01  -1.5227257024520186e-03  6.3486754924185181e-03  4.1089921548507536e-04  1.2047516349067029e-03  3.8216484130966333e-03  -1.6430927245308373e-03  1.0756819954874975e-02  1.3666355615323551e-03  5.8378223704783757e-03  2.0699054202533251e-03  5.1910210557013173e-03  6.8827096263288936e-04  1.3560611381617548e-03  4.4095302071635594e-04  1.0748216192274541e-01  7.5474109983308918e-02  1.0454955375355823e-01  9.6630432316368670e-02  1.1781061168871024e-01  1.0811920194293213e-01  1.0452374680452589e-01  1.0809775255653450e-01  1.8616735297196822e-04  5.8005987032217377e-04  5.8991486504341516e-02  1.4087072844091657e-02  2.4143256195198752e-03  -1.2537423996893172e-03  1.3836069229911040e-03  8.8752467621519178e-03  2.6775390230121955e-03  1.4804816918577350e-03  -2.4973955315873211e-04  1.9664465257297403e-03  3.2754230111543877e-03  2.7242058913221189e-05  5.7752650981638580e-03  9.1009384642596253e-02  7.1228714019804545e-02  4.9480559936698643e-02  -1.2367823609682204e-03  2.1951832980675661e-03  1.2515113070403730e-01  9.2171765050475390e-03  -2.0367213910968971e-03  1.1411401336852741e-03  2.8411808327152659e-02  9.0036249778554095e-02  2.3593616222629737e-03  2.6866322857918247e-03  8.1716393696142836e-02  3.2645784461563460e-03  1.8168762460366121e-03  1.0041459191065430e-03  3.1928145050775171e-03  1.0884597133746059e-03  1.3477368231093131e-03  5.7164419813029244e-03  4.2301580664726507e-03  1.1741371273572725e-03  5.7540404137404952e-03  4.1113373827280589e-03  5.4596186727777713e-03  1.2825489519523339e-03  3.7281200082926891e-03  1.5227939307229169e-03  9.5436506333964732e-03  1.6005985780352060e-03  1.3299725439341276e-03  1.0083827888744636e-01  6.7561754899134852e-02  1.7477625763513255e-03  -9.1747564270711112e-04  3.4660433333337172e-03  3.4491580360109719e-03  3.3941544573426654e-03  3.3254930621688683e-03  1.4803936842951737e-03  -5.9399316970083446e-04  2.0925274182383795e-03  5.3994330149381769e-03  1.0247125777507560e-01  5.0729896525479237e-03  5.7152230724410100e-03  4.6083144018646610e-03  2.6751395605440218e-03  1.0712331484154097e-01  3.9805072102803881e-04  -3.4974670275067022e-04  8.7647939481372995e-03  8.4329093132913382e-02  -2.1706275575398025e-02  9.7429123067249920e-03  8.0238738295382948e-03  4.0408262848542920e-03  1.2759191330760566e-01  2.9759044077261290e-03  -2.3630540192445186e-03  3.8159863420388533e-03  2.1993117749891486e-03  1.0663313367584176e-01  1.1322302973847577e-01  6.4044065622121367e-03  4.2252640413379203e-03  1.3207922233417421e-01  1.0764548770157076e-01  4.5372414126607216e-03  1.6621943267043119e-03  3.5383369014630028e-03  -1.9619948902169990e-03  2.0605259423304651e-03  1.0614497882914386e-02  4.9525813084521867e-03  3.2765776499669359e-03  5.7133524639624627e-03  1.1270322761900385e-01  9.9722398689299607e-02  -1.7997973856764282e-03  3.4453469060001708e-04  2.0399761197430924e-03  -3.3989790103291172e-04  6.1372709820971044e-03  1.1619469915695575e-02  1.0035117060963189e-02  5.4198053664163233e-03  4.9361337783320270e-03  1.3169513818213753e-03  1.1962478535690437e-02  3.0590485333174358e-03  1.5768447919630177e-01  1.0781995179799068e-01  8.7143032468963433e-03  3.3179529579803707e-03  -5.2202222294571460e-03  1.0126317001220711e-01  3.2251556836680193e-03  2.2779043569016227e-03  1.0946624332494073e-01  8.3417960250327647e-02  2.5267386785504326e-03  1.0981547862498886e-01  8.8739557151106208e-02  2.3054386014525227e-03  -8.7955312378559334e-03  1.5933846723338418e-02  5.0427540233231753e-02  -6.4129668691024545e-04  5.0016011567641794e-03  1.0416064022164321e-03  1.1763789185094673e-03  1.2045446827318780e-01  4.0852852639220623e-03  2.8515095146555334e-04  7.6826643580352877e-03  4.3671575814864787e-03  -1.1081841498635721e-10  9.0084441948938651e-02  1.9317989051543529e-03  2.1527822156452697e-03  -2.9383297534987438e-04  1.6395481290659931e-03  5.0416383294770318e-03  1.0952418772437018e-01  1.2470211636874567e-01  4.2344831458060645e-04  1.7381812767498159e-03  8.5765861225115148e-02  9.9446895978237498e-02  1.2185136715040619e-01  3.9966130654064394e-03  3.2811360107114981e-03  2.8897331427007100e-03  1.0915010546869496e-03  3.1087689087448229e-03  1.1358901016932472e-02  4.5759789342938789e-03  1.8846007748139462e-03  1.1357967557834402e-01  2.2105513017623857e-03  2.0390102379691140e-03  1.7975781133805124e-03  4.6560124253186071e-02  9.0319872491313846e-02  8.2175164921655122e-02  4.0087503063278148e-03  1.1203229117193192e-01  1.4564334970514415e-02  6.1900021728245507e-03  -4.9238247691517868e-03  8.0377292168849117e-04  8.2081736904481581e-04  -3.3673305812196072e-04  -6.0944751243141063e-11  1.3383944607424647e-01  8.7591930734049264e-02  2.8048790373233932e-03  2.2036651527571594e-03  1.8617259322182746e-03  2.9192204554451596e-03  5.7073066466834044e-03  1.0231432831704398e-01  9.2824745023094971e-02  1.6043485986975945e-02  2.8001648580678034e-03  6.3909291878694596e-02  -8.3893785754538046e-05  2.5777076954157218e-03  8.6193266172671749e-03  4.7645550442382018e-03  3.0783464523689387e-02  7.3346259851439829e-03  4.3550714695590508e-03  5.6871688772450191e-03  8.1052284165230226e-04  8.7981747502041175e-04  3.6717774649614002e-04  8.0036456457371633e-02  5.2953733814895647e-02  4.2133381062260944e-03  2.8514772786086859e-03  -5.8759222100897091e-03  8.6521246231937253e-04  2.8668352934907108e-03  5.5868343274593658e-03  4.8602738144957001e-03  1.1640594319877920e-01  8.8401368355730051e-03  -2.3982535543530079e-03  -1.3373907324200998e-03  1.0789628036923761e-01  2.1533220381598260e-03  8.3549022503413659e-02  -2.8145513126391730e-03  1.0294160557129794e-01  3.4533363990921469e-03  9.2040561598262451e-04  9.8513552618994344e-04  8.9172547186593565e-02  -9.9523440454573351e-04  -8.5959810196300262e-05  -1.1081841498635721e-10  2.0217361832873455e-03  1.9661433846385411e-03  2.9551967294297828e-03  3.9983595340182835e-03  9.0112679577284555e-02  8.7774227474492747e-02  3.1359245292947534e-03  -3.9200293471047880e-04  3.0035669162317398e-03  1.3811985292247876e-03  3.4251637383723521e-03  2.7631974903637047e-03  3.9505521095239858e-03  7.3842256652225685e-02  2.5413828860483606e-03  -1.8127615308584086e-03  -1.9344111320842830e-03  6.8281738885605523e-03  2.5734948978614284e-03  2.1832834281307811e-03  2.2712818427697967e-03  4.7012141730394946e-03  5.6345691915367100e-03  3.0433053749698308e-03  2.9139278451980836e-03  1.0022374838761362e-01  1.1007076880670426e-01  5.8250857987960291e-03  1.1695460662722469e-01  1.0609664795549464e-01  5.1238352375783808e-03  1.4204289780785681e-03  6.0238419777849928e-04  1.1308642247451745e-04  3.0701621948025361e-03  8.6929659306598194e-04  1.1936577285964168e-03  7.7554917614249833e-02  3.7109336867473751e-03  3.3054887662085806e-03  -6.6733608478995819e-04  8.1187519060923197e-02  -1.2230235765258066e-03  5.6914610243591745e-03  -2.3379490942201701e-03  1.1949515298160047e-01  1.0846611703586838e-01  3.5303770747118924e-03  2.1004831844197614e-03  3.7729074523665551e-03  9.3460118054864635e-03  8.4796764934328295e-03  1.0775592001141575e-01  5.3516137089974301e-03  9.2726297356995058e-02  2.0551271687011255e-03  6.9728542029389440e-02  8.0441365137535461e-04  4.6138956560286947e-03  5.6117333983586749e-03  1.0695096072783171e-01  2.9402691992694930e-03  1.2788488352575129e-03  9.7257967301628734e-