<?xml version="1.0"?>
<VTKFile type="UnstructuredGrid"  version="0.1"  >
<UnstructuredGrid>
<Piece  NumberOfPoints="1404" NumberOfCells="2604">
<Points>
<DataArray  type="Float64"  NumberOfComponents="3"  format="ascii">0 0.41 0  0 0 0  2.2 0 0  2.2 0.41 0  0.2353553390593274 0.2353553390593274 0  0.25 0.2 0  0.2353553390593274 0.1646446609406726 0  0.2 0.15 0  0.1646446609406726 0.1646446609406726 0  0.15 0.2 0  0.1646446609406726 0.2353553390593274 0  0.2 0.25 0  0.6923879532511287 0.188268343236509 0  0.7 0.15 0  0.6923879532511287 0.1117316567634909 0  0.6707106781186547 0.07928932188134523 0  0.6382683432365089 0.05761204674887133 0  0.6 0.04999999999999999 0  0.5617316567634909 0.05761204674887134 0  0.5292893218813453 0.07928932188134524 0  0.5076120467488713 0.111731656763491 0  0.5 0.15 0  0.5076120467488713 0.188268343236509 0  0.5292893218813453 0.2207106781186547 0  0.561731656763491 0.2423879532511287 0  0.6 0.25 0  0.6382683432365089 0.2423879532511287 0  0.6707106781186547 0.2207106781186547 0  1.1 0 0  0 0.205 0  1.1 0.41 0  0.55 0 0  0.55 0.41 0  0.275 0 0  0.8250000000000001 0 0  0.275 0.41 0  0.8250000000000001 0.41 0  0.6875 0 0  0.61875 0 0  1.65 0.41 0  1.65 0 0  1.375 0 0  1.375 0.41 0  1.925 0 0  1.925 0.41 0  1.5125 0.205 0  1.7875 0.205 0  0.9625000000000001 0.205 0  1.2375 0.205 0  2.2 0.205 0  1.99375 0.2152743902439024 0  0.4125 0.41 0  2.0625 0 0  2.0625 0.41 0  2.2 0.3075 0  1.7875 0.41 0  1.375 0.1486128048780488 0  1.5125 0 0  1.7875 0 0  1.5125 0.41 0  0.9625000000000001 0.41 0  0.4125 0 0  0.1375 0 0  0.1375 0.41 0  0.6875 0.41 0  0.9625000000000001 0 0  1.2375 0 0  1.1 0.1486128048780488 0  1.2375 0.41 0  1.65 0.1486128048780487 0  0.823495464168302 0.2603780552348366 0  0.3738707794507017 0.2720196349488618 0  0.3662291281331582 0.1311456406657909 0  1.676715909090909 0.2793064024390244 0  1.126715909090909 0.2793064024390244 0  1.348284090909091 0.2793064024390244 0  0.8287581077665108 0.1302150898054257 0  1.894702181800738 0.1282910975492754 0  2.092797818199262 0.1282910975492754 0  1.85625 0.3075 0  0 0.3075 0  0 0.1025 0  2.099172119769978 0.25625 0  0.4752414543992246 0.3180372603390748 0  1.99375 0.08395950269330846 0  1.459960956013612 0.3075 0  1.569025960719943 0.2986889805672169 0  1.03125 0.3278689922742084 0  1.959375 0.3126371951219512 0  1.749222215368287 0.1025 0  1.275777784631713 0.1025 0  0.9228016959331474 0.3075 0  1.000777784631713 0.1025 0  2.2 0.1025 0  1.225938124459196 0.3075 0  1.550777784631713 0.1025 0  1.44375 0.07430640243902442 0  1.16875 0.07430640243902439 0  0.7562500000000001 0.3358727844323386 0  0.89375 0 0  1.899250267340833 0.2229966846119207 0  0.61875 0.41 0  1.766482954545455 0.2934032012195123 0  1.046078563095834 0.2389031808701145 0  1.421109702350723 0.2261157654379721 0  0.07567171807980319 0.25625 0  0.2511897295290552 0.3235829392832554 0  0.07655002503762308 0.1488653460959645 0  0.1377245246847496 0.3206030474919778 0  0.6694099692696568 0.3242771941727899 0  0.9168971191497528 0.1295727156104653 0  0.7562500000000001 0 0  2.118919042110979 0.3422084711244843 0  2.13125 0 0  0.06875000000000001 0 0  1.30625 0.41 0  1.597888256393107 0.2173787389261347 0  0.34375 0.41 0  0.2493272016354703 0.08091360081773515 0  0.5588896233436766 0.3264056208677571 0  1.829299675393195 0.07400700849299596 0  0.1334079128307869 0.08523463035786674 0  1.71875 0.41 0  0.06875000000000001 0.41 0  1.16875 0.41 0  2.038220665644273 0.332420740103091 0  0.8810647413215221 0.2027360103977071 0  0.34375 0 0  0.7453891198966415 0.2471459041008237 0  0.42112093004955 0.1988123139090554 0  0.8314023090855964 0.3351170841770613 0  0.89375 0.41 0  0.7906250000000001 0.06615386481594063 0  1.452769549894695 0.1548122580621249 0  1.369219062229598 0.07430640243902442 0  1.30625 0 0  1.07420695807087 0.07430640243902439 0  1.720943423819132 0.1714577452753128 0  1.157188124459196 0.205 0  1.304056576180868 0.1714577452753128 0  1.67579304192913 0.07430640243902437 0  1.209670467133757 0.136210026696477 0  0.4312800784902823 0.08036147352247747 0  0.8723959680194693 0.07066860609690805 0  1.025335513626278 0.1700681449722324 0  0.7945632284247136 0.1940204203251442 0  0.378125 0.3452261501101892 0  0.3307109909790086 0.2037165635083759 0  0.3009701032039409 0.2702970083403109 0  0.20625 0.41 0  1.58125 0 0  0.4812500000000001 0 0  0.9838963872396855 0.2722244191167347 0  0.06772484939107212 0.3260067317374387 0  0.20625 0 0  1.58125 0.41 0  1.631724228912893 0.3381867502687533 0  1.825608881788174 0.14499488549201 0  1.85625 0 0  1.44375 0 0  1.44375 0.41 0  1.85625 0.41 0  2.13125 0.41 0  0.7562500000000001 0.41 0  0.4812500000000001 0.41 0  1.16875 0 0  1.03125 0.41 0  1.03125 0 0  1.71875 0 0  1.99375 0 0  1.99375 0.41 0  0.9408708167433545 0.0651989315768642 0  1.340625 0.3489494290853124 0  1.134375 0.3489494290853123 0  1.700180620188976 0.3438659752031281 0  0.29668452290037 0.1318471691375986 0  0.3175441051360096 0.06496934809856265 0  0.06509151636162461 0.08140814015999148 0  2.135782184673599 0.07126652247502523 0  1.668441847249787 0.2129203728327609 0  1.295782514339747 0.2378437748815763 0  1.409375 0.3520314716057996 0  2.129248544730567 0.1906135162504124 0  2.060771381434487 0.1989445750470348 0  2.013252586573865 0.1496169464686054 0  1.942766402200229 0.1734448904596831 0  1.895522487186454 0.06076163953489683 0  2.069553871656643 0.06605731020975725 0  0.4670911801404742 0.2498408582391372 0  0.7622743084658112 0.1264100838268133 0  1.274680914880868 0.3520219391081363 0  0.3148669572599245 0.3331753056385887 0  1.614713220494657 0.09473434380863296 0  1.72990325744076 0.2380068107952482 0  1.356580098625191 0.2120393231351682 0  2.034370752044885 0.2668681600792073 0  1.51768709249349 0.3426260931494756 0  1.561883724969884 0.1650446847858835 0  1.197344062229598 0.2523725417393646 0  1.804085235518364 0.3468178408964637 0  1.817887819205233 0.2589243285818559 0  1.905897727272727 0.3485060975609756 0  0.7296439733931823 0.06337466644369745 0  0.4250935971865949 0.1394919578475796 0  0.3773030136511669 0.05130372097998036 0  1.192836486056382 0.3562350748565544 0  1.1029124365364 0.226143510831178 0  1.28257088594801 0.2944411014911587 0  0.1905185804731426 0.06029880676029167 0  1.474860187679412 0.2504218616229368 0  1.406767003493824 0.2829282258560709 0  0.5209826960981064 0.2830664557824064 0  0.5131119502780163 0.3617405848213254 0  0.1948220106098172 0.3081993407644811 0  1.845656689180403 0.1998310418452388 0  2.144958525570388 0.2909790873294231 0  2.2 0.15375 0  0.8833025251326762 0.2625402923007629 0  0.171875 0.3653875762360952 0  1.57794966442982 0.3540357145964566 0  0.446875 0.366068291212731 0  0.4272051715206439 0.2891929346190664 0  1.508991196088596 0.1421783375065625 0  1.50436820029908 0.06143401634903343 0  1.223857000523521 0.08235548624535324 0  0.6137904613287555 0.3066826366281556 0  1.153316824384777 0.1289850171317838 0  0.9751573703656133 0.327632618473408 0  2.148922302309752 0.1258841779285271 0  0.9281250000000001 0.3643758685795699 0  1.621993280276081 0.2841214267927899 0  1.550118654119087 0.2461998729100966 0  1.327182649291491 0.1216967252533594 0  0.9939955742738924 0.04663549843168518 0  1.753125 0.04556020050186112 0  1.271875 0.04556020050186116 0  0.9734326767716519 0.1506854560854393 0  0.103125 0.3675775577080512 0  1.94956388244759 0.1180512551534177 0  1.949997712993411 0.04965831614304109 0  0.717433898748555 0.295596016333797 0  1.771961817615021 0.1530278789497521 0  1.909246823951428 0.2812757146784527 0  0 0.35875 0  1.050632804931928 0.1226269704412814 0  0.05695108326502596 0.2024009637347154 0  1.948575539857022 0.2445328248721197 0  1.697271520964565 0.1233917627620729 0  1.065625 0.3689344961371042 0  1.085849084308977 0.3170853572226867 0  0.1015495998772944 0.04226029099983852 0  1.577403511714593 0.05463601888079143 0  1.751571320346033 0.3651102912045228 0  2.2 0.35875 0  0.7441773632462837 0.1786786606458751 0  0 0.05125 0  1.466879772203159 0.3611261772912453 0  0.6282230348858767 0.3577675483994025 0  1.990280163552011 0.3564754268533217 0  1.17471064520912 0.2990917256188288 0  0 0.25625 0  2.2 0.25625 0  2.2 0.05125 0  0 0.15375 0  1.853978576207987 0.35875 0  1.515638456102889 0.2882700110184686 0  2.150453692751374 0.2387066338105111 0  1.323782677156475 0.04897634338873398 0  1.409375 0.03715320121951221 0  1.406484531114799 0.1087852750766809 0  1.134375 0.03715320121951219 0  0.721875 0.3729363922161693 0  0.7941695928236929 0.3696489254637395 0  0.7934827162619036 0.3013409431456604 0  1.627401732573545 0.04552157221025036 0  0.9352049974617431 0.2507047965699472 0  0.8763260682738339 0.3611103317460093 0  2.045405893604797 0.1105340662939892 0  1.255408269734577 0.1577307500159216 0  2.028125 0.03707597992059326 0  1.003030137506755 0.3689344961371042 0  1.248258025468107 0.2565907092181813 0  1.203125 0.03661323374043041 0  0.4800125512335631 0.0549472816999725 0  2.072662025974815 0.2975086504196739 0  0.240625 0.3729825336867542 0  1.113252391110535 0.10238286244357 0  1.071052763974265 0.1885202618768825 0  0.8738809401657862 0.3106483608284829 0  0.6786819423003397 0.2677558482644021 0  1.887722846421017 0.1760882698830035 0  1.472640588990488 0.1118278026240017 0  0.5843750000000001 0.41 0  1.865937103925594 0.2604137786483804 0  1.463913572748262 0.2030442564990043 0  1.376426316059077 0.3186741374914345 0  0.1038643885363755 0.2162701735320032 0  0.1769473813227781 0.1070849728467114 0  0.458787839809176 0.171541653775316 0  0.240625 0 0  0.04179569703428024 0.2877217852556549 0  0.1258346557601885 0.2699740073054968 0  1.722140693354707 0.282908100935778 0  0.41206179117512 0.2448172567039922 0  0.3702471778075604 0.2265217604228704 0  0.3714881805374215 0.1786967818665642 0  1.77397096061971 0.2481483237422926 0  2.105123889160691 0.03743885948498647 0  1.001138337938679 0.229719337663998 0  1.051242910646791 0.2854826559431138 0  1.395420985247586 0.18
[...]
<PointData  Scalars="f_43"> 
<DataArray  type="Float64"  Name="f_43"  format="ascii">-2.7786119301231579e-02  5.9490752034091196e-02  -4.9287093189865006e-09  -5.3610370601199561e-09  -8.2445712890569414e-02  -7.3129929917673822e-02  -9.4143820898310082e-02  -8.6687937259040740e-02  -6.9292485668055086e-03  1.9494188018635153e-03  -5.2698965976591954e-02  -9.6098480233186623e-02  -1.6467899932829155e-01  -1.6221509105945728e-01  -1.8215199705011031e-01  -2.3035246139341650e-01  -2.3288273090682854e-01  -2.8367566722220133e-01  -2.6827294772185512e-01  -1.2039594581525437e-01  -5.7703769098340005e-02  -4.3130715093186951e-02  -6.2178809476438252e-02  -1.0534552883974835e-01  -1.5334120361040002e-01  -1.8999781052684445e-01  -2.0189753150829665e-01  -1.8098903770104774e-01  -1.1660877801427959e-01  -3.4029818345952388e-02  -1.1525409929517878e-01  -1.8586753658154764e-01  -1.1331062542905460e-01  -5.5603646580577960e-02  -1.5685271626081029e-01  -6.0376880206254556e-02  -1.3983517243968072e-01  -2.1614559820125620e-01  -2.5042719916837480e-01  -5.7030612433227962e-02  -5.8061970951605396e-02  -8.7400630112576982e-02  -8.6724983946851630e-02  -2.8801195558630126e-02  -2.8591892336723785e-02  -7.2319250006639468e-02  -4.3339008527729532e-02  -1.2975047635969583e-01  -1.0125799463962942e-01  -6.5199274916952223e-09  -2.1704030404238687e-02  -7.7704381033535233e-02  -1.4714111841338480e-02  -1.4456247389536945e-02  -3.3169794211751215e-09  -4.3608343988838165e-02  -8.6874882145065294e-02  -7.2830129588642420e-02  -4.3160918620124271e-02  -7.2787649243740121e-02  -1.2831386717412863e-01  -7.2937673850956022e-02  -2.8446709270013512e-02  -3.5560596737498562e-02  -1.4056279141369010e-01  -1.3297168336114851e-01  -1.0133689705193517e-01  -1.1598818359384194e-01  -1.0083255286089977e-01  -5.7785953892816308e-02  -1.3987129641504861e-01  -6.8657321756402573e-02  -6.1809332518518285e-02  -5.4946072003309095e-02  -1.1252834745475723e-01  -8.9584979850115404e-02  -1.4759881479237416e-01  -3.2141837729316766e-02  -1.1349975573970640e-02  -3.6100975226664632e-02  -3.6999500295716831e-02  -2.1197335668879689e-02  -1.0606904939005870e-02  -9.0553553615914689e-02  -2.1846498587515674e-02  -7.7855922601387656e-02  -6.6313908927529627e-02  -1.2173933919893358e-01  -2.5251366284554697e-02  -4.7335781859553741e-02  -9.7385177969127573e-02  -1.3148226102821059e-01  -1.2748064869444950e-01  -1.1304267702714543e-08  -1.0230155436116846e-01  -6.8279264414336183e-02  -7.9683819812744708e-02  -1.0877015779494366e-01  -1.4152641782166847e-01  -1.4317338669270949e-01  -3.1615849787353260e-02  -1.3282602121353590e-01  -4.5535738567291650e-02  -1.2089248229047039e-01  -8.1959727823466957e-02  -2.9441352782126538e-02  -6.0641329349203618e-02  -1.4275365036938189e-02  -3.9345494220877561e-02  -1.4518713633256741e-01  -1.3686795184286263e-01  -1.7807021417252919e-01  -8.5055369607151318e-03  -6.8626632764753805e-03  -1.1331542360180077e-02  -9.4263268439157277e-02  -6.3286634386370139e-02  -6.8576642007191491e-02  -5.4241272009824371e-02  -1.2236769185266029e-01  -3.8972334789102267e-02  -2.3580624277037252e-02  -5.0921558176860011e-02  -2.6054552716950875e-02  -1.0827930751433293e-01  -1.6944517356222603e-02  -1.3766793840983382e-01  -6.3257038060549040e-02  -1.4717874896028685e-01  -6.3768331131438663e-02  -1.3774287974338675e-01  -1.3411505165213747e-01  -1.6100426685754324e-01  -7.8659028636262313e-02  -8.7574939133191379e-02  -9.4513312901980798e-02  -1.1926302884396690e-01  -5.0322263039369791e-02  -1.0966739083618625e-01  -9.4320025645935210e-02  -5.5058188080414010e-02  -1.0431534415149409e-01  -6.7838437436635479e-02  -1.4542071331837425e-01  -1.2382444597599455e-01  -1.4541622668978824e-01  -7.2691965055924776e-02  -6.3161330510089694e-02  -6.4679025536759555e-02  -4.9346953230795222e-02  -6.4646650682531254e-02  -9.5935720340242947e-02  -1.2657033135092141e-01  -3.1229532120871650e-02  -4.3521734123387119e-02  -6.4839031460333041e-02  -5.9609545595775096e-02  -3.9354493042885443e-02  -3.6524680591213242e-02  -7.9845819663149561e-02  -7.9420470130593293e-02  -3.5988279178890407e-02  -7.3286109739660339e-03  -1.4160615517981578e-01  -9.2910728793647840e-02  -1.0881199829344970e-01  -1.2184866510405540e-01  -1.2415719892527032e-01  -5.0200332535198074e-02  -2.2184758122865637e-02  -2.1816623291055749e-02  -1.3554354443558900e-01  -9.0394402583620720e-02  -1.1163547983449362e-01  -5.2378140951136340e-02  -6.1397209889868930e-02  -5.9663246834029945e-02  -1.3891986531181903e-02  -6.7674091341099517e-03  -5.5842752289445255e-02  -9.5114709075480239e-02  -8.3131347756182430e-02  -7.4659681990146077e-03  -1.4675164401644970e-02  -1.9714823566964919e-02  -2.7084581987011042e-02  -3.2111894801349163e-02  -1.3918917329658715e-02  -7.8291965343539979e-02  -1.5604647445950423e-01  -9.7302370546513653e-02  -6.5452368946852399e-02  -6.1489404126231446e-02  -4.9377422659951514e-02  -8.8758013113854062e-02  -1.7402012894690996e-02  -7.1811287670541860e-02  -6.7101009547064966e-02  -1.0534671864041302e-01  -4.1587951940387585e-02  -4.0145738924987011e-02  -3.0845315163895722e-02  -1.7806044974621216e-01  -5.9786032854690266e-02  -6.5571293311077833e-02  -1.0563811063821861e-01  -1.1520404964832157e-01  -9.6453445704829902e-02  -4.0468928322183781e-02  -7.6285211563763500e-02  -8.3448060502249344e-02  -1.0711263923191537e-01  -1.0302053401218843e-01  -5.5481571907815247e-02  -3.7245628170003667e-02  -5.7954300134590376e-03  4.6825019355591525e-09  -1.3544530715061803e-01  -4.4044499667071198e-02  -6.5320137218259480e-02  -8.5009451556802007e-02  -7.6677228631412200e-02  -7.2714548646860583e-02  -7.3289303633241890e-02  -1.0287123114489542e-01  -1.4741910379884907e-01  -1.1034021464760790e-01  -1.2689840687427068e-01  -5.3971841705694476e-03  -1.3077449725831461e-01  -6.0709180376295156e-02  -6.8331356440674784e-02  -9.1945186342661078e-02  -1.2877577004099802e-01  -4.6862499749809203e-02  -9.7875934707396209e-02  -1.2977829799474833e-01  -3.2034239689482977e-02  -2.6416878008890247e-02  -2.6380361965123007e-02  -1.4649332210515384e-01  -4.4967818217089124e-02  -3.0536283081965619e-02  -3.2954435342179601e-02  -1.2158246742743489e-01  -2.3729712132700701e-02  -2.6428027707734374e-02  -5.2801620370338767e-02  -1.1838778888290204e-01  -1.1649922235301223e-01  -1.8478679538956762e-02  -6.5380512215311160e-02  -4.7074087764152749e-02  -5.3610370601199561e-09  -1.5067798270252564e-01  -9.4216500903711135e-03  -7.7120350273707464e-02  -1.3661580369504145e-01  -2.1956142214826346e-02  -1.0758682216817450e-01  -3.8131692476200289e-02  -6.5199274916952223e-09  -4.9287093189865006e-09  -2.8230463701713174e-02  -3.6327738631400437e-02  -7.1975672916543235e-02  -5.2188253507575401e-03  -9.2462740364579632e-02  -8.3253828593942258e-02  -8.3588282080194837e-02  -1.1241073986643120e-01  -1.4123504476222293e-01  -1.3970140186424754e-01  -1.4041940690503643e-01  -6.0121705020979667e-02  -1.3134779903889737e-01  -1.3474069768140151e-01  -1.6386604637961193e-02  -9.9454443990873706e-02  -1.8526646097415576e-02  -1.2412184715874711e-01  -1.0005399896773411e-01  -1.0490112503521339e-01  -8.8420567051318025e-02  -1.3365475220075080e-02  -5.6084484954239441e-02  -1.1479882752940082e-01  -1.1877745912648123e-01  -1.3518112002771335e-01  -1.6060177112732227e-01  -3.2848389633485034e-02  -7.6588965062185266e-02  -1.2428337107469543e-01  -3.5097916574314561e-02  -7.7455690565980964e-02  -8.6623324042748140e-02  -1.8484135387040166e-02  -3.7883017570876497e-02  -5.6816187319344652e-02  -4.9908971389458857e-02  -3.3001587386919967e-02  -3.6613202360245574e-02  -5.0181239026733715e-02  -6.9572566631929234e-02  -6.5505915966126357e-02  -6.2923707139245971e-02  -4.4753405458488799e-02  -1.0136787821263094e-02  -1.2549188320536916e-01  -1.2003710880707975e-01  -8.4689577518014786e-02  -1.7583433267449912e-02  -6.6752165211729261e-02  -6.2752222290626297e-02  -1.8748962514703264e-02  -1.0704823102368621e-02  -1.4279587452788020e-01  -1.4136221365968943e-01  -1.2817606241540302e-01  -4.0763081569648717e-02  -2.2019720591439609e-02  -6.2216019753605155e-02  -6.2664080798412028e-02  -6.3129845869801651e-02  -3.9706309271707952e-03  -1.0548065844589607e-02  -1.3007197970292055e-02  -1.3360505377100076e-01  -1.3266170602350444e-01  -6.1296448662431779e-02  -1.3992476944799659e-01  -4.2721120324131057e-02  -1.2057084954351013e-01  -5.9403019573779373e-02  -7.7326289183303698e-02  -2.0338259839855367e-02  -8.5978295938438948e-02  -1.4277043976232254e-01  -6.4636971403941076e-02  -6.2151875587340026e-02  -1.0552143035239732e-01  -7.6317959005808858e-02  -5.9739374961239412e-02  -6.8458404547026175e-02  -1.2334588736781221e-01  -5.3628784029207940e-02  -5.1471750065700032e-02  -4.2367697640391866e-03  -4.3569430978572946e-03  -1.0326052373302674e-02  -6.9928006760389787e-03  -2.8299924692640383e-02  -2.9906172023875896e-02  -1.4961620076201737e-01  -1.5376577550653053e-01  -5.9374547375646194e-02  -4.2288295891319362e-02  -3.4968790922083007e-02  -6.8486627712351603e-02  -6.2991038368704816e-02  -5.5343756997471745e-02  -6.8576458173817814e-02  -2.6570981426951853e-02  -1.4020156133195419e-01  -3.5939565658273309e-03  -1.5054052158971920e-01  -3.9759907776897592e-02  -4.8677159557861088e-02  -5.6042130471054191e-02  -6.3546492914752048e-02  -1.5143814885974832e-02  -6.0816996485903912e-02  -6.8378889783540467e-02  -6.7972925235896098e-02  -1.0135746234702005e-01  -6.4776921117428693e-02  -1.1175886748906032e-02  -7.7176295140297571e-02  -1.3358702882729584e-01  -4.8127508380525416e-02  -6.4126853530257086e-02  -2.1916728526000095e-01  -3.3571421378886801e-02  -5.9920809960953399e-02  -1.4316587540084688e-01  -1.3796578844040389e-01  -1.4115999323830608e-01  -1.1129494158409931e-01  -1.1189767047626373e-01  -4.1402857593796890e-03  -1.4365239353110170e-02  -9.2424001210200626e-02  -8.1490044315625842e-02  -5.4176070113636565e-02  -1.4343179876177503e-01  -1.5193794791690460e-01  -2.2344909538005112e-02  -1.0659708188584986e-01  -3.2557243701082837e-02  -4.7642955717673525e-02  -3.6098776931888343e-02  -3.2860250034180971e-02  -2.8631043046825413e-02  -6.7677539263543321e-02  -7.2527002376021832e-02  -1.1730456981544160e-01  -5.1126724464041123e-02  -1.2349231981288075e-01  -1.1713583646695852e-01  -5.6192854474659076e-02  -5.7449217014646323e-02  -5.7687729399273566e-02  -3.2911546460904745e-02  -1.7021893549105604e-02  -8.2735349380591183e-02  -7.2823475185950004e-02  -1.4265576604914348e-01  -2.2904188529173114e-02  -4.4249631931473556e-02  -1.4354888004219515e-01  -1.9318354268952159e-01  -1.3207095095425930e-01  -7.4777745172860774e-02  -1.5540987373430926e-01  -1.7834929156720362e-02  -7.9564799694054722e-02  -7.2296499197089220e-02  -3.2440209097359056e-02  -1.3826585457931018e-01  -1.3760771477944334e-01  -1.2772718377246406e-01  -1.4909828868967709e-01  -7.0617018120438232e-02  -1.2037974228929295e-01  -1.7216079334743931e-01  -1.6615628235286750e-01  -1.5442427796989072e-01  -4.7545880874145185e-02  -9.7053083646142513e-02  -4.9102252071990524e-02  -9.5570760457458617e-02  -8.7520612147981083e-02  -8.8472267059619428e-02  -5.4012206272128688e-02  -9.0699255021255129e-02  -2.3847739661449936e-02  -6.6722257808227353e-02  -1.0068916324911299e-01  -1.0617107198448417e-01  -6.2785947145289331e-02  -5.5841787296637906e-02  -1.4438164722735516e-01  -1.3937526029445149e-01  -6.0001673445736328e-02  -6.3546746060625603e-02  -7.0558195402402421e-02  -7.7383703880886043e-02  -7.3048971985185465e-02  -1.2447598026357552e-01  -3.9475415413753712e-02  -6.3889061963272403e-02  -1.4407050472480658e-02  -1.8184257859609657e-02  -9.3680134757614122e-02  -9.6136609859635187e-03  -1.4073221104099698e-01  -1.4684622507659828e-01  -8.7414630557759183e-03  -3.8701867186479054e-03  -4.4950085699410218e-02  -6.9063202462188944e-02  -1.2204205678859188e-01  -1.2522802001745348e-01  -1.2727269268327518e-01  -1.4741326859846579e-01  -1.3079430984054277e-02  -3.6250923501254743e-02  -8.3472271050955879e-02  -1.1529134120351074e-01  -6.2209796408808277e-02  -1.6236998325700847e-01  -3.7210034292358717e-03  -8.4965057620213658e-03  -2.5565286309402687e-02  -9.5616646766633149e-03  -1.0479828464425361e-01  -3.5935969739451637e-02  -4.1793720105749506e-02  -1.6436129135153918e-01  -1.3270832554924022e-01  -1.5938357590477389e-01  -2.3289334713656523e-01  -1.3095226084186223e-01  -1.2951903197721909e-01  -1.2319218912660453e-01  -1.0893484664983377e-01  -1.1162784798317214e-01  -9.3881764952367261e-02  -9.0129733001489923e-02  -8.6856705904158629e-02  -1.1099144525376577e-01  -5.8369510024724812e-02  -6.2411932367530870e-02  -8.0841123120185224e-02  -8.2735919051471398e-03  -1.0440251573601446e-01  -3.6371353745063284e-02  -1.1516735335057850e-01  -1.0139325449772317e-01  -1.2846824296381651e-01  -8.2980194466845958e-02  -5.3845848878797238e-02  -2.1793676248614467e-02  -1.8021952944528657e-02  -1.2053270717864993e-01  -2.5173347004950618e-02  -9.7871823189018992e-02  -1.1337358085100134e-01  -5.0289074549783416e-02  -3.7084852784156672e-02  -1.0884149703141763e-01  -9.0567632653830651e-02  -2.7871302003741410e-03  -1.1491396032157916e-02  -1.4214510807243239e-01  -1.1227474818999301e-01  -8.3024669135041959e-02  -7.6213001891138110e-02  -4.6852085786873075e-02  -1.1847178434186764e-01  -4.7206623181973086e-02  -1.3056423930585043e-01  -8.3295361204831039e-02  -4.1813458050438367e-03  -8.1328813793904095e-02  -8.4180077108697710e-02  -6.7278356314586729e-02  -5.5164845850428940e-02  -2.1912882148824479e-02  -2.9665188784519153e-02  -4.2110078857882670e-02  -2.4942637653233443e-02  -1.3568498526214226e-01  -1.4067470584640962e-01  -1.0200279729779005e-01  -1.3684627651876360e-01  -2.3543367308720178e-01  -1.0474896477899366e-01  -1.2485293129665295e-01  -6.1120450697990825e-02  -2.5107991080424545e-02  -9.8072539213364632e-02  -1.2838059321178749e-01  -1.8735883087891831e-02  -2.5168578954097385e-02  -1.3545499162612967e-01  -5.0678100366680738e-02  -6.8977530568821818e-02  -9.0052066765191827e-02  -9.4344812842719436e-02  -1.1463959394349117e-01  -2.0039188352160307e-02  -1.7167807369627464e-02  -8.0136094355817825e-02  -1.0838026698639344e-01  -1.3973902365566002e-01  -1.2903803411009307e-01  -6.6513280186330390e-02  -9.1105545368307297e-02  -9.3372242140139394e-02  -6.6829236164435660e-02  -1.0814013668174685e-01  -6.9581763715761566e-02  -7.4259129760331416e-02  -3.0851851327831501e-02  -7.9839469354564985e-02  -8.1389056973855151e-02  -5.2363853189859783e-02  -3.2276479800527828e-02  -1.0864238939972264e-01  -5.1828727096653572e-02  -3.9027868122422649e-02  -5.5855178059082293e-02  -9.3286512650936765e-02  -2.8774377543878973e-02  -7.4337338357021221e-02  -6.3151496374071234e-02  -1.4774570326922972e-02  -1.1973235836163184e-02  -6.1704256935662533e-02  -9.3428266419810627e-02  -1.3739608362630720e-01  -1.6373951110099222e-01  -8.8042719228991234e-02  -1.0028034883935999e-01  -2.8985825021859684e-02  -3.0075472792068136e-02  -1.1963634827765373e-02  -1.1790954537723879e-01  -1.6820274509693808e-02  -4.1630222141287726e-02  -5.8870023930824349e-02  -3.8464101000354987e-02  -5.2745802119060298e-02  -3.7546882239872077e-02  -2.5230733523455392e-02  -3.3992867094681453e-02  -3.3376284812135599e-03  -1.4214151061524488e-01  -6.6267119190494730e-02  -7.2387475224588160e-02  -1.7289396048024414e-01  -6.5002689532963315e-02  -5.8556071290050409e-02  -3.0621525044601618e-02  -1.5094339194750974e-02  -6.6706332826918152e-02  -1.9489937278087102e-01  -6.3482716238686857e-02  -1.3427199982277752e-01  -7.0667333957913497e-02  -2.7743765445302836e-02  -7.0134381203764459e-02  -9.0348433637567754e-02  -7.2619535790260342e-02  -3.9570918884038818e-02  -3.4324535356091514e-02  -1.3672334516206000e-01  -2.7176293835591610e-02  -1.0226579244775226e-01  -1.2144223183169930e-01  -6.6709066250117660e-02  -4.0861751250195928e-02  -1.0522857561776469e-01  -4.7569155717780760e-02  -3.2420867218210671e-02  -4.8191810300311000e-02  -1.1126926989787439e-01  -9.8928195909866790e-02  -1.0284413307206430e-01  -1.0769186512220275e-01  -5.6442532494987069e-02  -7.6406145933846023e-02  -2.4671284391604123e-01  -4.2705782312828504e-02  -3.8211338021987021e-02  -1.1239755682599573e-02  -7.4093560348033341e-02  -2.3712084547954381e-02  1.3494052689541344e-02  -3.0238843774790428e-02  -6.9386466029199498e-02  -3.1754463012160339e-02  -1.7517856470843721e-01  -4.6032880979464334e-02  -9.5474859682233210e-02  -6.8486280918585732e-02  -6.7289830790577751e-02  -7.6481489425804280e-02  -2.3207016280091062e-02  -3.1704974891678707e-02  -6.5360093953097401e-02  -8.9652681026847439e-02  -2.0550222961027012e-01  -2.4031748180955179e-01  -1.1033220507577148e-01  -9.9439762124803155e-02  -3.7826643309588653e-02  -1.3326309517091139e-01  -1.0617110071250279e-02  -2.9086128581934483e-02  -3.9162757283437710e-02  -1.0259346937389240e-01  -5.9951516759831271e-02  -3.3749511274326155e-02  -6.5199274916952223e-09  -6.2885568860022084e-02  -1.3377438224924074e-01  -1.3697522964739597e-01  -1.2619208344806240e-01  -1.2967074560462266e-01  -5.7946750628697495e-02  -6.1817006374975329e-02  -6.2164522195022977e-02  -3.7168387758892900e-03  -1.4269220077339561e-02  -6.4244613164002096e-02  -1.1022349571860098e-01  -2.2636830707147681e-02  -3.1952154063513309e-02  -8.4991098555661851e-02  -7.8773476506213122e-02  -7.6502106242927234e-02  -7.4283949526295301e-02  -8.0146618801429634e-02  -3.4616630183769204e-02  -1.1712971873694250e-01  -2.8811595211425668e-02  -8.6486645956579941e-02  -8.2147529505544575e-02  -1.3801481785780420e-01  -1.1345165016264976e-01  -5.9064061574061570e-02  -6.7291135114127862e-02  -3.4097024734568243e-02  -3.4867685075568609e-02  -1.3671635861942283e-01  -1.4367002218394070e-01  -1.4955376823243527e-01  -1.1814625199613359e-01  -1.1397664976576201e-01  -1.1250831298647362e-01  -1.1304267702714543e-08  -5.5699705662149365e-02  -6.8517771292976024e-02  -9.9699075146842092e-02  -9.6895923899404143e-02  -1.4001035860171870e-01  -9.6819686617135178e-02  -4.9324013238001896e-02  -5.2487579850975380e-02  -6.4404900779636245e-02  -1.3653545592401126e-01  -1.1367328228925101e-01  -9.7622668059830442e-02  -1.2586242969879607e-01  -2.0104651037195553e-02  -7.5719282801449489e-02  -5.8858116680360673e-02  -1.2171771176038328e-01  -1.2906247526764686e-01  -1.4271763160436665e-01  -4.5106350436752742e-02  -6.6942515329469696e-03  -7.3571506906146677e-03  -3.0599903851556676e-03  -8.3316880703391397e-02  -8.1508543350292492e-02  -3.4459222858552872e-02  -2.2298877197082987e-02  -1.5142840455884937e-01  -1.3315600137520550e-01  -9.5087805503545147e-02  -4.8707081861381084e-02  -4.4700305357734907e-02  -2.7786394511926223e-02  -6.3836918710193910e-02  -1.0731517303878577e-01  -1.1306949950966427e-01  -2.8546521143351492e-02  -9.0787441751916040e-02  -6.6043651929795416e-02  -1.5445548232465478e-01  -6.2081843779671811e-02  -1.0315244925502567e-01  -9.6390281307375397e-02  -1.4154860807244304e-01  -6.5279266076461062e-02  -1.4864701893311710e-01  -1.3061727476070473e-01  -6.5199274916952223e-09  -1.2437860470629464e-01  -1.2719907313305520e-01  -6.5559449692826066e-02  -6.2221642695529725e-02  -7.1953946307046338e-02  -7.4918469697088125e-02  -2.9496312396713867e-02  -1.4310677301255423e-01  -2.7316700883754038e-02  -1.1628469531203563e-02  -7.0575661693751790e-02  -6.6810600002881901e-02  -6.5664832305521698e-02  -8.7470786007992296e-02  -8.9587513229887936e-02  -1.8417814552424516e-01  -1.0573768591263703e-01  -6.1152989030923019e-02  -1.1784851681150878e-01  -1.1450649958993220e-01  -1.1932770926054116e-01  -4.0338656425951525e-02  -4.4233883534505344e-02  -2.9225180301059347e-02  -2.7835580189054396e-02  -4.5189944498310250e-02  -3.7275945131054068e-02  -4.9637755992603692e-02  -2.4041010238078399e-02  -8.8066634078726308e-02  -4.6301912166366928e-02  -1.3025850709716252e-01  -1.2839488984419312e-01  -1.3249526965512012e-01  -1.0606303773428338e-01  -1.4043997064650002