<?xml version="1.0"?>
<VTKFile type="UnstructuredGrid"  version="0.1"  >
<UnstructuredGrid>
<Piece  NumberOfPoints="1404" NumberOfCells="2604">
<Points>
<DataArray  type="Float64"  NumberOfComponents="3"  format="ascii">0 0.41 0  0 0 0  2.2 0 0  2.2 0.41 0  0.2353553390593274 0.2353553390593274 0  0.25 0.2 0  0.2353553390593274 0.1646446609406726 0  0.2 0.15 0  0.1646446609406726 0.1646446609406726 0  0.15 0.2 0  0.1646446609406726 0.2353553390593274 0  0.2 0.25 0  0.6923879532511287 0.188268343236509 0  0.7 0.15 0  0.6923879532511287 0.1117316567634909 0  0.6707106781186547 0.07928932188134523 0  0.6382683432365089 0.05761204674887133 0  0.6 0.04999999999999999 0  0.5617316567634909 0.05761204674887134 0  0.5292893218813453 0.07928932188134524 0  0.5076120467488713 0.111731656763491 0  0.5 0.15 0  0.5076120467488713 0.188268343236509 0  0.5292893218813453 0.2207106781186547 0  0.561731656763491 0.2423879532511287 0  0.6 0.25 0  0.6382683432365089 0.2423879532511287 0  0.6707106781186547 0.2207106781186547 0  1.1 0 0  0 0.205 0  1.1 0.41 0  0.55 0 0  0.55 0.41 0  0.275 0 0  0.8250000000000001 0 0  0.275 0.41 0  0.8250000000000001 0.41 0  0.6875 0 0  0.61875 0 0  1.65 0.41 0  1.65 0 0  1.375 0 0  1.375 0.41 0  1.925 0 0  1.925 0.41 0  1.5125 0.205 0  1.7875 0.205 0  0.9625000000000001 0.205 0  1.2375 0.205 0  2.2 0.205 0  1.99375 0.2152743902439024 0  0.4125 0.41 0  2.0625 0 0  2.0625 0.41 0  2.2 0.3075 0  1.7875 0.41 0  1.375 0.1486128048780488 0  1.5125 0 0  1.7875 0 0  1.5125 0.41 0  0.9625000000000001 0.41 0  0.4125 0 0  0.1375 0 0  0.1375 0.41 0  0.6875 0.41 0  0.9625000000000001 0 0  1.2375 0 0  1.1 0.1486128048780488 0  1.2375 0.41 0  1.65 0.1486128048780487 0  0.823495464168302 0.2603780552348366 0  0.3738707794507017 0.2720196349488618 0  0.3662291281331582 0.1311456406657909 0  1.676715909090909 0.2793064024390244 0  1.126715909090909 0.2793064024390244 0  1.348284090909091 0.2793064024390244 0  0.8287581077665108 0.1302150898054257 0  1.894702181800738 0.1282910975492754 0  2.092797818199262 0.1282910975492754 0  1.85625 0.3075 0  0 0.3075 0  0 0.1025 0  2.099172119769978 0.25625 0  0.4752414543992246 0.3180372603390748 0  1.99375 0.08395950269330846 0  1.459960956013612 0.3075 0  1.569025960719943 0.2986889805672169 0  1.03125 0.3278689922742084 0  1.959375 0.3126371951219512 0  1.749222215368287 0.1025 0  1.275777784631713 0.1025 0  0.9228016959331474 0.3075 0  1.000777784631713 0.1025 0  2.2 0.1025 0  1.225938124459196 0.3075 0  1.550777784631713 0.1025 0  1.44375 0.07430640243902442 0  1.16875 0.07430640243902439 0  0.7562500000000001 0.3358727844323386 0  0.89375 0 0  1.899250267340833 0.2229966846119207 0  0.61875 0.41 0  1.766482954545455 0.2934032012195123 0  1.046078563095834 0.2389031808701145 0  1.421109702350723 0.2261157654379721 0  0.07567171807980319 0.25625 0  0.2511897295290552 0.3235829392832554 0  0.07655002503762308 0.1488653460959645 0  0.1377245246847496 0.3206030474919778 0  0.6694099692696568 0.3242771941727899 0  0.9168971191497528 0.1295727156104653 0  0.7562500000000001 0 0  2.118919042110979 0.3422084711244843 0  2.13125 0 0  0.06875000000000001 0 0  1.30625 0.41 0  1.597888256393107 0.2173787389261347 0  0.34375 0.41 0  0.2493272016354703 0.08091360081773515 0  0.5588896233436766 0.3264056208677571 0  1.829299675393195 0.07400700849299596 0  0.1334079128307869 0.08523463035786674 0  1.71875 0.41 0  0.06875000000000001 0.41 0  1.16875 0.41 0  2.038220665644273 0.332420740103091 0  0.8810647413215221 0.2027360103977071 0  0.34375 0 0  0.7453891198966415 0.2471459041008237 0  0.42112093004955 0.1988123139090554 0  0.8314023090855964 0.3351170841770613 0  0.89375 0.41 0  0.7906250000000001 0.06615386481594063 0  1.452769549894695 0.1548122580621249 0  1.369219062229598 0.07430640243902442 0  1.30625 0 0  1.07420695807087 0.07430640243902439 0  1.720943423819132 0.1714577452753128 0  1.157188124459196 0.205 0  1.304056576180868 0.1714577452753128 0  1.67579304192913 0.07430640243902437 0  1.209670467133757 0.136210026696477 0  0.4312800784902823 0.08036147352247747 0  0.8723959680194693 0.07066860609690805 0  1.025335513626278 0.1700681449722324 0  0.7945632284247136 0.1940204203251442 0  0.378125 0.3452261501101892 0  0.3307109909790086 0.2037165635083759 0  0.3009701032039409 0.2702970083403109 0  0.20625 0.41 0  1.58125 0 0  0.4812500000000001 0 0  0.9838963872396855 0.2722244191167347 0  0.06772484939107212 0.3260067317374387 0  0.20625 0 0  1.58125 0.41 0  1.631724228912893 0.3381867502687533 0  1.825608881788174 0.14499488549201 0  1.85625 0 0  1.44375 0 0  1.44375 0.41 0  1.85625 0.41 0  2.13125 0.41 0  0.7562500000000001 0.41 0  0.4812500000000001 0.41 0  1.16875 0 0  1.03125 0.41 0  1.03125 0 0  1.71875 0 0  1.99375 0 0  1.99375 0.41 0  0.9408708167433545 0.0651989315768642 0  1.340625 0.3489494290853124 0  1.134375 0.3489494290853123 0  1.700180620188976 0.3438659752031281 0  0.29668452290037 0.1318471691375986 0  0.3175441051360096 0.06496934809856265 0  0.06509151636162461 0.08140814015999148 0  2.135782184673599 0.07126652247502523 0  1.668441847249787 0.2129203728327609 0  1.295782514339747 0.2378437748815763 0  1.409375 0.3520314716057996 0  2.129248544730567 0.1906135162504124 0  2.060771381434487 0.1989445750470348 0  2.013252586573865 0.1496169464686054 0  1.942766402200229 0.1734448904596831 0  1.895522487186454 0.06076163953489683 0  2.069553871656643 0.06605731020975725 0  0.4670911801404742 0.2498408582391372 0  0.7622743084658112 0.1264100838268133 0  1.274680914880868 0.3520219391081363 0  0.3148669572599245 0.3331753056385887 0  1.614713220494657 0.09473434380863296 0  1.72990325744076 0.2380068107952482 0  1.356580098625191 0.2120393231351682 0  2.034370752044885 0.2668681600792073 0  1.51768709249349 0.3426260931494756 0  1.561883724969884 0.1650446847858835 0  1.197344062229598 0.2523725417393646 0  1.804085235518364 0.3468178408964637 0  1.817887819205233 0.2589243285818559 0  1.905897727272727 0.3485060975609756 0  0.7296439733931823 0.06337466644369745 0  0.4250935971865949 0.1394919578475796 0  0.3773030136511669 0.05130372097998036 0  1.192836486056382 0.3562350748565544 0  1.1029124365364 0.226143510831178 0  1.28257088594801 0.2944411014911587 0  0.1905185804731426 0.06029880676029167 0  1.474860187679412 0.2504218616229368 0  1.406767003493824 0.2829282258560709 0  0.5209826960981064 0.2830664557824064 0  0.5131119502780163 0.3617405848213254 0  0.1948220106098172 0.3081993407644811 0  1.845656689180403 0.1998310418452388 0  2.144958525570388 0.2909790873294231 0  2.2 0.15375 0  0.8833025251326762 0.2625402923007629 0  0.171875 0.3653875762360952 0  1.57794966442982 0.3540357145964566 0  0.446875 0.366068291212731 0  0.4272051715206439 0.2891929346190664 0  1.508991196088596 0.1421783375065625 0  1.50436820029908 0.06143401634903343 0  1.223857000523521 0.08235548624535324 0  0.6137904613287555 0.3066826366281556 0  1.153316824384777 0.1289850171317838 0  0.9751573703656133 0.327632618473408 0  2.148922302309752 0.1258841779285271 0  0.9281250000000001 0.3643758685795699 0  1.621993280276081 0.2841214267927899 0  1.550118654119087 0.2461998729100966 0  1.327182649291491 0.1216967252533594 0  0.9939955742738924 0.04663549843168518 0  1.753125 0.04556020050186112 0  1.271875 0.04556020050186116 0  0.9734326767716519 0.1506854560854393 0  0.103125 0.3675775577080512 0  1.94956388244759 0.1180512551534177 0  1.949997712993411 0.04965831614304109 0  0.717433898748555 0.295596016333797 0  1.771961817615021 0.1530278789497521 0  1.909246823951428 0.2812757146784527 0  0 0.35875 0  1.050632804931928 0.1226269704412814 0  0.05695108326502596 0.2024009637347154 0  1.948575539857022 0.2445328248721197 0  1.697271520964565 0.1233917627620729 0  1.065625 0.3689344961371042 0  1.085849084308977 0.3170853572226867 0  0.1015495998772944 0.04226029099983852 0  1.577403511714593 0.05463601888079143 0  1.751571320346033 0.3651102912045228 0  2.2 0.35875 0  0.7441773632462837 0.1786786606458751 0  0 0.05125 0  1.466879772203159 0.3611261772912453 0  0.6282230348858767 0.3577675483994025 0  1.990280163552011 0.3564754268533217 0  1.17471064520912 0.2990917256188288 0  0 0.25625 0  2.2 0.25625 0  2.2 0.05125 0  0 0.15375 0  1.853978576207987 0.35875 0  1.515638456102889 0.2882700110184686 0  2.150453692751374 0.2387066338105111 0  1.323782677156475 0.04897634338873398 0  1.409375 0.03715320121951221 0  1.406484531114799 0.1087852750766809 0  1.134375 0.03715320121951219 0  0.721875 0.3729363922161693 0  0.7941695928236929 0.3696489254637395 0  0.7934827162619036 0.3013409431456604 0  1.627401732573545 0.04552157221025036 0  0.9352049974617431 0.2507047965699472 0  0.8763260682738339 0.3611103317460093 0  2.045405893604797 0.1105340662939892 0  1.255408269734577 0.1577307500159216 0  2.028125 0.03707597992059326 0  1.003030137506755 0.3689344961371042 0  1.248258025468107 0.2565907092181813 0  1.203125 0.03661323374043041 0  0.4800125512335631 0.0549472816999725 0  2.072662025974815 0.2975086504196739 0  0.240625 0.3729825336867542 0  1.113252391110535 0.10238286244357 0  1.071052763974265 0.1885202618768825 0  0.8738809401657862 0.3106483608284829 0  0.6786819423003397 0.2677558482644021 0  1.887722846421017 0.1760882698830035 0  1.472640588990488 0.1118278026240017 0  0.5843750000000001 0.41 0  1.865937103925594 0.2604137786483804 0  1.463913572748262 0.2030442564990043 0  1.376426316059077 0.3186741374914345 0  0.1038643885363755 0.2162701735320032 0  0.1769473813227781 0.1070849728467114 0  0.458787839809176 0.171541653775316 0  0.240625 0 0  0.04179569703428024 0.2877217852556549 0  0.1258346557601885 0.2699740073054968 0  1.722140693354707 0.282908100935778 0  0.41206179117512 0.2448172567039922 0  0.3702471778075604 0.2265217604228704 0  0.3714881805374215 0.1786967818665642 0  1.77397096061971 0.2481483237422926 0  2.105123889160691 0.03743885948498647 0  1.001138337938679 0.229719337663998 0  1.051242910646791 0.2854826559431138 0  1.395420985247586 0.18
[...]
<PointData  Scalars="f_43"> 
<DataArray  type="Float64"  Name="f_43"  format="ascii">1.0719497864898753e-01  2.0322893436152975e-01  5.0060574982468225e-11  1.2065127282154457e-10  8.0324795458849269e-02  8.1173583536822358e-02  6.5991432734604560e-02  6.2784096412379892e-02  1.3541004855304145e-01  1.3774443119548199e-01  8.8764107793643118e-02  7.1202151759248336e-02  -6.2631720575450625e-03  -1.3839018148274918e-03  -2.8131389118235249e-03  -7.2575535223491491e-03  3.6372539477784835e-02  8.2234569482954722e-03  -1.1133640218462056e-03  8.9979942444334299e-02  1.4429037740031264e-01  1.4152175826329941e-01  7.7687009846193963e-02  2.0125084004225788e-02  -1.7485638928058742e-02  -3.6899560832158187e-02  -2.9528687483998083e-02  -1.3453648638411714e-02  1.8452842294037059e-02  1.1742388278219854e-01  1.4509095886632108e-02  6.1116369040982964e-02  4.7649893777529401e-02  1.0014613573747878e-01  7.8876242027756498e-03  9.4128781348818011e-02  5.8223019109432178e-03  3.3435140871268003e-03  1.2589294021390940e-02  8.5405479083378016e-03  8.5605910854816732e-03  1.3069486639248109e-02  1.2589417823383037e-02  4.2786089835967177e-03  4.2783896009301950e-03  1.0691450077503533e-02  6.4143485845476710e-03  1.7164698334805915e-02  1.4956568516860730e-02  9.8527123054294166e-11  3.2069345562134111e-03  8.1906619274295905e-02  2.1367698859064022e-03  2.1364824943065626e-03  1.4258845739671391e-10  6.4082339923553500e-03  1.2942040452910572e-02  1.0757826048693880e-02  6.4222311719756824e-03  1.0627171337998278e-02  1.0274835352226635e-02  1.0488931621358707e-01  1.1265114390483906e-01  1.0645742472272615e-01  9.4709953166885949e-03  1.7450527649403195e-02  1.5679194844798554e-02  1.7824747018585291e-02  1.4197083032400805e-02  8.5633381483651051e-03  -6.9388409208555031e-04  9.3162133412815359e-02  9.8682468125924711e-02  8.1307854978461321e-03  1.5582921609836917e-02  1.3067205438759806e-02  6.6948097690912112e-03  4.7464512752175168e-03  1.6674722732219196e-03  5.3412773660542843e-03  1.0821245577381484e-01  1.2753027126262048e-01  1.5655635890851221e-03  7.2516143442110284e-02  3.2067341049518382e-03  1.1421859040419721e-02  9.7846359307573287e-03  1.3867121676866316e-02  3.7406227995748615e-03  7.0151504854890556e-03  1.4782379774416874e-02  1.0518268945511422e-02  1.8629923121935232e-02  1.0748022585182583e-10  1.4498472020732010e-02  1.0133433175119900e-02  1.1876590086003787e-02  1.7004139119406330e-02  4.2146393570160617e-03  1.3090484406217876e-02  4.6757648279807775e-03  2.3342670858518964e-02  6.7349593987911941e-03  1.7160778019412008e-02  1.2082784769610033e-02  1.1275722459336564e-01  9.0201785193367690e-02  1.2753976856469793e-01  1.0437869141226613e-01  1.1192313968327221e-03  1.4534106974401075e-02  3.7459321080611633e-03  1.2604725299952199e-03  1.0594371058219208e-03  1.2679504392816254e-01  1.3472649118458777e-02  9.3595181039080981e-03  8.7804819739441514e-02  9.3516194594874660e-02  3.1922906468662547e-02  5.7687661477411542e-03  1.1937339023541484e-01  7.4788648058720470e-03  1.0738440373267866e-01  1.4641434670166245e-02  2.5168302443900280e-03  6.6709479608294906e-03  1.0150274763388271e-01  -5.7527072476285333e-03  9.6412050758452869e-02  6.6327378867971328e-03  7.2969479975850109e-03  6.6615605918443543e-03  1.1673970731887437e-02  1.3150089685780740e-02  1.4325308411817927e-02  1.8650067661848863e-02  7.4522493923349867e-03  1.6217559618127611e-02  1.4046140907392412e-02  8.1645022372003918e-03  1.5862781174539865e-02  1.1361916210759583e-01  1.1364480477625886e-02  1.8703737449980249e-02  -3.4836328294377264e-03  8.6833928639681424e-02  8.6194401535777898e-02  8.7117042225333924e-02  1.0190166921669022e-01  9.6556600853908540e-03  1.0514311113367814e-01  1.5363503457267521e-02  1.0762582740299878e-01  1.0409092392741405e-01  9.5845239596525651e-03  8.8210090549966976e-03  5.8232387683080896e-03  5.3441875124774435e-03  1.1892461221556513e-02  1.1636686344120609e-02  5.3402371488279893e-03  1.0616572627938281e-03  5.6185608507386062e-03  6.9852721836736506e-02  1.7124373198337348e-02  1.3149795729879522e-02  1.9001585042180840e-02  7.4870422834498480e-03  3.2020204101156609e-03  3.2061518537721515e-03  1.6080514721239145e-02  1.3065187810844382e-02  1.4811980910413443e-02  7.7649499557668044e-03  8.4477336790485469e-02  1.0042779538969400e-01  1.2735260024322489e-01  9.9869925777956573e-04  8.2658813339698128e-03  1.3929171221154432e-02  1.2127377812455981e-02  1.0983174998812086e-03  2.1628575459604364e-03  2.9019182627508158e-03  3.9973042025340574e-03  4.7326073891153092e-03  2.0278244440608121e-03  7.9420219936444006e-02  1.7072322083123916e-03  1.3854437279939735e-02  8.9933799564477140e-02  9.1226355659592452e-03  7.3084100854514224e-03  1.3097238164682508e-02  2.5753697766079551e-03  1.0550787077626517e-02  9.9388573892218463e-03  1.5182392021210854e-02  6.1534275798131805e-03  5.9380330072474619e-03  4.5730130248546642e-03  3.5941334936099145e-03  1.1634198722068043e-01  1.0451387144671952e-01  1.4583903045543014e-02  1.6757330521502828e-02  1.3898474937915573e-02  1.0483650768651301e-01  1.1240587516975679e-02  1.2222028820204242e-02  4.2898327363924058e-02  5.8925686214643558e-02  9.2201219824971439e-02  5.5084215243860818e-03  8.5411591583145117e-04  -1.6359330621733605e-10  8.1017591576555276e-03  1.0322542041380360e-01  9.6401766075055722e-03  7.6791499087294809e-02  8.8330534069915076e-02  1.0782237224082640e-02  1.0887372451696943e-02  1.5852702316435999e-02  -2.4699098976883496e-03  1.6986015417907958e-02  1.1838204065240396e-02  7.9466607379068480e-04  8.8101479545350751e-03  8.9747456163136764e-03  1.0090321284087288e-02  1.3805628247613416e-02  1.8279361671996491e-02  6.9562161268998486e-03  1.4971694264623156e-02  1.8094000245130810e-02  1.0661644805249106e-01  3.8928593391102627e-03  3.8851224820017432e-03  -4.2107196921588128e-03  6.6592849333955611e-03  4.5185098142599758e-03  1.0715378193457858e-01  1.8731585199757584e-02  1.2003741688908176e-01  3.9075595045453852e-03  7.8228699377489528e-03  1.4100765279588172e-02  1.4994138259952959e-02  1.2144843892364070e-01  9.7179599812787596e-03  6.9678287051003389e-03  1.2065127282154457e-10  -2.9339660077467048e-03  1.3616448123168290e-01  1.1298857364355104e-02  1.6761336294797174e-02  3.2607983960983547e-03  1.5015571029591904e-02  1.1163926843568163e-01  9.8527123054294166e-11  5.0060574982468225e-11  1.2293158582770364e-01  5.3773323834437189e-03  1.0599458404705036e-02  7.6992607962307440e-04  1.3984743008142390e-02  1.2472899327010087e-02  1.2476279887392739e-02  1.7790262565751551e-02  7.4767649542674232e-03  6.6662356511692292e-03  1.7360514623982221e-03  8.9260300370159352e-03  1.4158655842483636e-02  7.5099191244781443e-03  2.4037700548300359e-03  1.4924426241282677e-02  2.6754108175084325e-03  1.2153694855329434e-02  1.4500182059796340e-02  1.6376087772226797e-02  1.0717745493758438e-01  1.9806535408880455e-03  9.7003572223114135e-02  1.7937118055240748e-02  1.7882057076216779e-02  7.9621643478741417e-03  -1.3612582656667066e-02  4.8542157775248590e-03  1.1383237070885446e-02  3.4678938892676481e-02  5.1919245319422243e-03  1.1449531925664863e-02  1.2612257316429348e-02  1.2308325850596409e-01  1.0528403178634013e-01  1.1355206932542991e-01  1.0118608486927365e-01  1.0947502424795479e-01  1.0576843043336172e-01  7.4252963749043806e-03  9.2250755755628161e-02  9.1226189804652053e-02  9.1433172115283609e-02  6.6230784823840963e-03  1.4757076031330617e-03  1.7649305160268813e-02  1.5611238038775569e-02  1.2537144783680844e-02  2.6753626236553523e-03  8.2585170687654988e-02  9.2994908164135467e-03  1.2640387111775220e-01  1.3088600861187069e-01  2.0314004999513378e-03  9.4936013170186136e-03  9.2296433244636461e-02  6.0284187711357956e-03  3.2569427536539523e-03  8.6195393385456218e-02  8.1402238192364904e-02  8.4339135218854638e-02  5.8066191534275201e-04  1.6062037934976574e-03  1.9369016153625654e-03  1.5384862706500094e-02  1.7263994454209650e-02  9.0704368144121292e-03  1.1116985677788266e-02  6.3253712355371928e-03  3.8811389292126477e-02  1.3254246291011926e-01  1.0614371393020994e-01  3.0152475448704248e-03  1.2629018568437596e-02  -2.5911700046417131e-03  9.0670440714931036e-02  9.2591847243158415e-02  1.5769893352888059e-02  1.1316376943291401e-02  8.8450711584145188e-03  1.0114061001449836e-02  1.8861629797695571e-02  8.0418109159592702e-03  7.6543268920715411e-03  6.3181424441576700e-04  6.3033761827731055e-04  1.2947608257927809e-01  1.3225872797630911e-01  1.0723979715528402e-01  1.1247284728812139e-01  1.0388268208136660e-02  8.6809101156800714e-03  8.7827743362667889e-03  6.2656405070102318e-03  5.1626003092185039e-03  9.0801607728679457e-02  7.8609977265349282e-02  1.0033726839347736e-01  1.0211026544038862e-02  3.9403382946919851e-03  -5.8944151632585881e-04  1.3674066266549897e-01  8.9438111312423116e-03  5.8803943802390145e-03  7.2087343658513723e-03  8.3260223567523869e-03  1.0805218422586324e-01  2.2279967697516221e-03  9.5801767165195409e-02  8.8357068194287888e-02  1.0053759887410123e-02  1.4236591726437159e-02  8.9612869408417214e-02  1.6457767472184957e-03  1.1483331590960582e-02  1.3235438372869082e-02  1.0196873304904855e-01  9.4723100231817250e-03  5.4832195084545182e-03  1.0745140542380777e-01  1.0045268269829430e-01  7.9543203645008914e-02  1.5521896974133332e-02  1.3566788405330698e-02  1.6006173896733845e-02  1.6942499862743050e-02  6.0835412233241880e-04  1.2685513114044597e-01  1.3361553951758379e-02  8.2071920983222704e-02  9.6694573530372266e-02  -5.2936863752808911e-03  -4.9479002497222844e-03  3.2762683150763263e-03  5.2717620178881680e-02  4.8076007679161235e-03  9.6240717424150884e-02  5.3282072182386951e-03  4.8093611675971096e-03  4.2195998851315246e-03  8.5844971953569646e-02  1.0767442967669721e-02  1.6340337980702179e-02  7.5849331754740653e-03  1.8879750543276529e-02  1.8464363302081038e-02  8.3246724892646999e-03  8.5214099930537735e-03  8.3214304484267601e-02  1.1478349706641265e-01  2.5344507992179337e-03  1.2300452507056074e-02  9.0318557893565687e-02  3.4413647055372351e-03  1.2353343340881484e-01  6.5609814679756621e-03  -3.2984059946710052e-03  3.2313349550033440e-03  2.2212200468672120e-02  1.1071761611897754e-02  -1.3199473237988490e-02  2.6010774764380546e-03  1.1688730869003204e-02  1.0664200475985106e-02  1.0758605820627302e-01  4.2172017461863057e-03  6.9286067507289455e-03  1.0392335404970535e-02  1.6021555950842480e-03  1.0481305829532616e-02  1.8901239331843147e-02  5.4797806639380010e-03  5.7608879861210773e-03  6.2941820306139399e-03  7.0383312537900386e-03  1.4348272802373914e-02  7.2736766190024862e-03  1.4367350681556262e-02  1.3099686641689524e-02  1.3326285163739453e-02  7.9989541094440259e-03  1.3520749052153639e-02  3.5159450196921580e-03  8.3002894654912521e-02  1.5295860309257484e-02  1.6386522235893541e-02  9.2743244249079478e-03  8.2690590690585250e-03  1.0842088286981383e-02  1.4088628464276512e-02  8.8873860085150989e-03  9.4092057467859442e-03  1.0368000247304877e-02  8.2331215448993800e-02  8.5046384331846483e-02  1.4039609387836971e-02  5.8835837499998647e-03  8.7889977348552528e-02  2.1296988400414107e-03  2.6868765393124744e-03  1.4168105449729809e-02  1.4189684159620333e-03  6.7633078271093355e-03  -4.7338670114121326e-03  1.2885475355009412e-03  5.7069377723675276e-04  6.6520090294011841e-03  1.0259628872626636e-02  1.8136968389023723e-02  1.8840591464152918e-02  1.8481763419023394e-02  1.1038525026673553e-02  1.3150001443115608e-01  1.0783437389518577e-01  1.2479334438080074e-02  1.4642632369301018e-02  1.0251489507099711e-01  -1.1550678899207682e-03  5.4637429188704066e-04  1.2424046483276170e-03  3.7771192620858194e-03  1.4203838612808050e-03  1.5391282100782640e-02  5.3123756331273130e-03  6.1866662134362170e-03  3.9483793977616397e-03  8.5035805933018575e-03  -8.5273021890432607e-03  2.8988479694842150e-02  1.7846230721436148e-02  1.3381930320640809e-02  1.6248538303878599e-02  1.4671874419065005e-02  1.4680643956174227e-02  1.3446977629876613e-02  1.3049039822288737e-02  1.2607649938723405e-02  1.5086524912000668e-02  9.2757224916238917e-02  1.0260601596591271e-01  1.1969527565570442e-02  1.2153333081097370e-03  1.4471561356609928e-02  5.3771141512469365e-03  1.7343567240069718e-02  1.5652149174644758e-02  1.6537085135761739e-02  1.2125206082650998e-02  8.0023349870362755e-03  3.2142076247460793e-03  2.6573657490001068e-03  1.8447538988899066e-02  3.7264275116508112e-03  1.3851254699264761e-02  1.4608366502249923e-02  1.0072104331195411e-01  1.0551797877418606e-01  1.7095653250490606e-02  1.3683872701534901e-02  5.3975871725958885e-04  1.5894385592753501e-03  6.6860989076561834e-03  1.7840038367949777e-02  1.2480070935038586e-02  1.1129731483446134e-02  6.9444916077866974e-03  1.4023952244389768e-02  6.9546106537941863e-03  8.6216600461683033e-03  1.2120321806175728e-02  5.3585255474210172e-04  1.0618684323388186e-01  7.7259663724259922e-02  1.0309742594691092e-01  9.8100212045519747e-02  1.1665339837538327e-01  1.0723404244922315e-01  1.0484891621726906e-01  1.0732577662416845e-01  6.3702858380857560e-03  5.5220055146945118e-03  6.0036221458518856e-02  1.4644320626085422e-02  1.0025946533544633e-02  1.6399124148588247e-02  1.1908371255894327e-02  9.1146549644574061e-03  3.7392276149106791e-03  1.4984035419050230e-02  1.8567490893366980e-02  2.6731350932689061e-03  3.7345477699995697e-03  1.6248920906804083e-02  7.4948423292089880e-03  9.0469979623295851e-02  6.9699571236515420e-02  4.8197255798115332e-02  1.8059057969583119e-02  2.9428526700393601e-03  1.2390145722161326e-01  1.1925009921936437e-02  1.6412613054035404e-02  5.4645974498988932e-03  2.8352684073724505e-02  9.1203639777573495e-02  1.3352433005948218e-02  1.3577972022058241e-02  7.8360348893995971e-02  1.4820515088990269e-02  1.0250103495410785e-02  1.0912334757858667e-02  4.5428972413140735e-03  1.1682966309471002e-02  1.1876156857384624e-02  7.7503848471802174e-03  4.7809288074864868e-03  1.5422668644895525e-02  7.6731270716287074e-03  5.7732548500339488e-03  8.2657683958384590e-03  1.3775291538236364e-02  4.2585802075520516e-03  1.0881142371638270e-02  9.3843741103146992e-03  2.1539874227972603e-03  1.7533163043558862e-03  1.0110652146262007e-01  6.9010569845777192e-02  1.0871156793219124e-02  6.5742683478918519e-03  1.3061990519082640e-02  1.4195852738949504e-02  4.2842786110591329e-03  4.4399585060302385e-03  1.7708610101220090e-03  1.8327887160756510e-02  2.4919686819975780e-03  6.1450991764703533e-03  1.0152218968862597e-01  5.6890597646920404e-03  7.8061855666130249e-03  5.5537551215677277e-03  3.7133737515138714e-03  1.0634782407228875e-01  4.9187000489037537e-04  -3.2580373033826320e-03  9.8263355852807738e-03  8.5626226652066498e-02  -2.5206308778964678e-02  9.6519064561474896e-03  8.6858349357134164e-03  4.5411888368454296e-03  1.2675712292796917e-01  9.8472696347965353e-03  4.0125401992724850e-03  9.3672590912973561e-03  1.0896374824985575e-02  1.0490425413924724e-01  1.1282092418785007e-01  1.0383573559756285e-02  1.3584701088976804e-02  1.2401671194714727e-01  1.0650489283106318e-01  5.0763936667728689e-03  5.8588235500752822e-03  4.0253470524780855e-03  1.5291271067621312e-02  1.3243658266875862e-02  9.9295441622677567e-03  6.0460317224317172e-03  1.4688829107011745e-02  7.0400590738346298e-03  1.1119505436491163e-01  9.8198843280629999e-02  1.7357947378361108e-02  1.4501486358083170e-02  1.4728862220817037e-02  1.5676235354550417e-02  8.3593232238261903e-03  1.1368644553075121e-02  2.1289568445530278e-02  6.3178499881074287e-03  5.6507694304434794e-03  1.6573795692704449e-03  1.0998287201121400e-02  3.5075282293827613e-03  1.5659951878995307e-01  1.0715376228705523e-01  1.0287395814437243e-02  4.6858680209345537e-03  -6.8597786601797017e-04  1.0085276310367255e-01  1.3704193203341443e-02  1.0085583971591308e-02  1.0737770159546371e-01  8.5405929446105963e-02  3.4153970717754369e-03  1.0933136201707296e-01  8.9280437762484746e-02  1.2990438918825958e-02  -2.3678848513207346e-03  2.2669049588201644e-02  5.0906330769683310e-02  1.5224538252644190e-02  5.6079659326178496e-03  1.6566353293021630e-02  1.5566987862890896e-03  1.1975271837739619e-01  5.7973655779383574e-03  1.4933918380055486e-02  8.8872953481131684e-03  4.9954809740440642e-03  9.8527123054294166e-11  9.0629353892058076e-02  9.7924283039864737e-03  5.6242496904683453e-03  1.8702207546435531e-02  1.0049174777361029e-02  8.5705730011013392e-03  1.0878651179212405e-01  1.2084043931497100e-01  5.5146844583980577e-04  2.1113759429399180e-03  8.5379235259944772e-02  9.8513764890702904e-02  1.2015043751958801e-01  4.7265381292147636e-03  1.2535240164108157e-02  1.1617513103608366e-02  1.1253176559920291e-02  1.0965252960024371e-02  1.1964306511582319e-02  5.1258417721243964e-03  1.5599570315964477e-02  1.1313555831136381e-01  1.2649263049972733e-02  1.2074761814817937e-02  2.8830058409404333e-03  4.6257715200935537e-02  9.0135511325031684e-02  8.2207550772753379e-02  5.0397470258864872e-03  1.1155013127454963e-01  1.1851250924868521e-02  4.8256529120210044e-03  -7.1424227063155580e-03  1.7074234247159734e-02  1.6132363399694583e-02  1.6527905010903739e-02  1.0748022585182583e-10  1.2835662348417748e-01  8.8946901194720790e-02  1.4305653984308532e-02  1.4069135603232289e-02  6.1454926583266864e-03  1.3764336271191391e-02  7.3150644128171290e-03  1.0134153720921248e-01  9.2225794318086293e-02  1.6709360063242373e-02  1.4972519237255292e-02  6.4461768175866074e-02  1.8750554704148350e-02  2.9889520899136672e-03  1.1231238190437346e-02  8.7027681141709015e-03  2.8049957547046568e-02  6.5825382860732586e-03  5.5852595910825436e-03  6.6779642922260209e-03  9.8395374597174063e-04  1.0841950322702011e-03  4.5106942409230653e-04  8.0830032283871561e-02  5.4631875556443978e-02  5.0953789244786657e-03  3.3077029972183648e-03  -7.7042539731064725e-03  7.8366755074865107e-03  1.4462557818477348e-02  7.2238817930073782e-03  6.6270317365759229e-03  1.1584410561566712e-01  9.4702752506428574e-03  1.6420528168326339e-02  1.7377266577336244e-02  1.0707678480378356e-01  1.3446366121621565e-02  8.2510965634538538e-02  -9.9051707588831690e-04  1.0210159502547500e-01  1.4440279434457366e-02  1.4669454647700550e-02  -3.6117260015452032e-03  9.0372640712204924e-02  -1.9480781225515644e-03  1.7869898983062186e-02  9.8527123054294166e-11  1.2860105044426612e-02  1.3315895356530126e-02  9.6746561225452329e-03  9.1965258025404686e-03  9.2254473416791855e-02  8.8069769546393201e-02  4.3467775703985093e-03  4.5387254696266854e-04  4.0280889473130431e-03  1.7151510968193852e-03  1.0425585613952723e-02  9.8609995837979046e-03  9.7040285694416605e-03  7.5329205350427669e-02  1.2999357611677040e-02  4.6220152838764026e-03  1.6426333847863118e-02  9.0588147262419434e-03  1.4463587172767507e-02  1.5367737026474303e-02  1.4766994247138478e-02  5.9685053842530580e-03  6.5374821318344633e-03  4.3084720366446620e-03  4.1095650841250454e-03  9.8279162323354485e-02  1.0960321825665283e-01  7.3419594684121696e-03  1.1580057649564900e-01  1.0487800392763957e-01  6.8602714517380856e-03  1.7540898849120540e-02  1.8508333166057635e-02  1.7296198853093792e-02  1.4549783337785357e-02  1.2951685603628221e-02  1.1862592696074266e-02  7.9163451431953649e-02  5.0153440951037813e-03  1.4080634650624368e-02  1.8766071669234673e-02  8.0958363123227198e-02  -1.4423090483519595e-03  7.9215805502819859e-03  1.5821825041898170e-02  1.1537079582632265e-01  1.0510733147745017e-01  9.3907052917499203e-03  1.1466592328908471e-02  1.3348180280815114e-02  9.3164765011905792e-03  1.2892915431922732e-02  1.0698977879583219e-01  6.9969786476637508e-03  9.3519967577119473e-02  1.0334118036438751e-02  6.5723362777005301e-02  1.0578428247421537e-03  6.2605150043608410e-03  7.9075011389545743e-03  1.0681573791557411e-01  1.3393344245912719e-02  1.1382880378820829e-02  1.1282864111615876e-02  1.0920604739604406e-02  1.0520881988051994e-01  -2.2324302447312952e-03  1.8715