<?xml version="1.0"?>
<VTKFile type="UnstructuredGrid"  version="0.1"  >
<UnstructuredGrid>
<Piece  NumberOfPoints="1404" NumberOfCells="2604">
<Points>
<DataArray  type="Float64"  NumberOfComponents="3"  format="ascii">0 0.41 0  0 0 0  2.2 0 0  2.2 0.41 0  0.2353553390593274 0.2353553390593274 0  0.25 0.2 0  0.2353553390593274 0.1646446609406726 0  0.2 0.15 0  0.1646446609406726 0.1646446609406726 0  0.15 0.2 0  0.1646446609406726 0.2353553390593274 0  0.2 0.25 0  0.6923879532511287 0.188268343236509 0  0.7 0.15 0  0.6923879532511287 0.1117316567634909 0  0.6707106781186547 0.07928932188134523 0  0.6382683432365089 0.05761204674887133 0  0.6 0.04999999999999999 0  0.5617316567634909 0.05761204674887134 0  0.5292893218813453 0.07928932188134524 0  0.5076120467488713 0.111731656763491 0  0.5 0.15 0  0.5076120467488713 0.188268343236509 0  0.5292893218813453 0.2207106781186547 0  0.561731656763491 0.2423879532511287 0  0.6 0.25 0  0.6382683432365089 0.2423879532511287 0  0.6707106781186547 0.2207106781186547 0  1.1 0 0  0 0.205 0  1.1 0.41 0  0.55 0 0  0.55 0.41 0  0.275 0 0  0.8250000000000001 0 0  0.275 0.41 0  0.8250000000000001 0.41 0  0.6875 0 0  0.61875 0 0  1.65 0.41 0  1.65 0 0  1.375 0 0  1.375 0.41 0  1.925 0 0  1.925 0.41 0  1.5125 0.205 0  1.7875 0.205 0  0.9625000000000001 0.205 0  1.2375 0.205 0  2.2 0.205 0  1.99375 0.2152743902439024 0  0.4125 0.41 0  2.0625 0 0  2.0625 0.41 0  2.2 0.3075 0  1.7875 0.41 0  1.375 0.1486128048780488 0  1.5125 0 0  1.7875 0 0  1.5125 0.41 0  0.9625000000000001 0.41 0  0.4125 0 0  0.1375 0 0  0.1375 0.41 0  0.6875 0.41 0  0.9625000000000001 0 0  1.2375 0 0  1.1 0.1486128048780488 0  1.2375 0.41 0  1.65 0.1486128048780487 0  0.823495464168302 0.2603780552348366 0  0.3738707794507017 0.2720196349488618 0  0.3662291281331582 0.1311456406657909 0  1.676715909090909 0.2793064024390244 0  1.126715909090909 0.2793064024390244 0  1.348284090909091 0.2793064024390244 0  0.8287581077665108 0.1302150898054257 0  1.894702181800738 0.1282910975492754 0  2.092797818199262 0.1282910975492754 0  1.85625 0.3075 0  0 0.3075 0  0 0.1025 0  2.099172119769978 0.25625 0  0.4752414543992246 0.3180372603390748 0  1.99375 0.08395950269330846 0  1.459960956013612 0.3075 0  1.569025960719943 0.2986889805672169 0  1.03125 0.3278689922742084 0  1.959375 0.3126371951219512 0  1.749222215368287 0.1025 0  1.275777784631713 0.1025 0  0.9228016959331474 0.3075 0  1.000777784631713 0.1025 0  2.2 0.1025 0  1.225938124459196 0.3075 0  1.550777784631713 0.1025 0  1.44375 0.07430640243902442 0  1.16875 0.07430640243902439 0  0.7562500000000001 0.3358727844323386 0  0.89375 0 0  1.899250267340833 0.2229966846119207 0  0.61875 0.41 0  1.766482954545455 0.2934032012195123 0  1.046078563095834 0.2389031808701145 0  1.421109702350723 0.2261157654379721 0  0.07567171807980319 0.25625 0  0.2511897295290552 0.3235829392832554 0  0.07655002503762308 0.1488653460959645 0  0.1377245246847496 0.3206030474919778 0  0.6694099692696568 0.3242771941727899 0  0.9168971191497528 0.1295727156104653 0  0.7562500000000001 0 0  2.118919042110979 0.3422084711244843 0  2.13125 0 0  0.06875000000000001 0 0  1.30625 0.41 0  1.597888256393107 0.2173787389261347 0  0.34375 0.41 0  0.2493272016354703 0.08091360081773515 0  0.5588896233436766 0.3264056208677571 0  1.829299675393195 0.07400700849299596 0  0.1334079128307869 0.08523463035786674 0  1.71875 0.41 0  0.06875000000000001 0.41 0  1.16875 0.41 0  2.038220665644273 0.332420740103091 0  0.8810647413215221 0.2027360103977071 0  0.34375 0 0  0.7453891198966415 0.2471459041008237 0  0.42112093004955 0.1988123139090554 0  0.8314023090855964 0.3351170841770613 0  0.89375 0.41 0  0.7906250000000001 0.06615386481594063 0  1.452769549894695 0.1548122580621249 0  1.369219062229598 0.07430640243902442 0  1.30625 0 0  1.07420695807087 0.07430640243902439 0  1.720943423819132 0.1714577452753128 0  1.157188124459196 0.205 0  1.304056576180868 0.1714577452753128 0  1.67579304192913 0.07430640243902437 0  1.209670467133757 0.136210026696477 0  0.4312800784902823 0.08036147352247747 0  0.8723959680194693 0.07066860609690805 0  1.025335513626278 0.1700681449722324 0  0.7945632284247136 0.1940204203251442 0  0.378125 0.3452261501101892 0  0.3307109909790086 0.2037165635083759 0  0.3009701032039409 0.2702970083403109 0  0.20625 0.41 0  1.58125 0 0  0.4812500000000001 0 0  0.9838963872396855 0.2722244191167347 0  0.06772484939107212 0.3260067317374387 0  0.20625 0 0  1.58125 0.41 0  1.631724228912893 0.3381867502687533 0  1.825608881788174 0.14499488549201 0  1.85625 0 0  1.44375 0 0  1.44375 0.41 0  1.85625 0.41 0  2.13125 0.41 0  0.7562500000000001 0.41 0  0.4812500000000001 0.41 0  1.16875 0 0  1.03125 0.41 0  1.03125 0 0  1.71875 0 0  1.99375 0 0  1.99375 0.41 0  0.9408708167433545 0.0651989315768642 0  1.340625 0.3489494290853124 0  1.134375 0.3489494290853123 0  1.700180620188976 0.3438659752031281 0  0.29668452290037 0.1318471691375986 0  0.3175441051360096 0.06496934809856265 0  0.06509151636162461 0.08140814015999148 0  2.135782184673599 0.07126652247502523 0  1.668441847249787 0.2129203728327609 0  1.295782514339747 0.2378437748815763 0  1.409375 0.3520314716057996 0  2.129248544730567 0.1906135162504124 0  2.060771381434487 0.1989445750470348 0  2.013252586573865 0.1496169464686054 0  1.942766402200229 0.1734448904596831 0  1.895522487186454 0.06076163953489683 0  2.069553871656643 0.06605731020975725 0  0.4670911801404742 0.2498408582391372 0  0.7622743084658112 0.1264100838268133 0  1.274680914880868 0.3520219391081363 0  0.3148669572599245 0.3331753056385887 0  1.614713220494657 0.09473434380863296 0  1.72990325744076 0.2380068107952482 0  1.356580098625191 0.2120393231351682 0  2.034370752044885 0.2668681600792073 0  1.51768709249349 0.3426260931494756 0  1.561883724969884 0.1650446847858835 0  1.197344062229598 0.2523725417393646 0  1.804085235518364 0.3468178408964637 0  1.817887819205233 0.2589243285818559 0  1.905897727272727 0.3485060975609756 0  0.7296439733931823 0.06337466644369745 0  0.4250935971865949 0.1394919578475796 0  0.3773030136511669 0.05130372097998036 0  1.192836486056382 0.3562350748565544 0  1.1029124365364 0.226143510831178 0  1.28257088594801 0.2944411014911587 0  0.1905185804731426 0.06029880676029167 0  1.474860187679412 0.2504218616229368 0  1.406767003493824 0.2829282258560709 0  0.5209826960981064 0.2830664557824064 0  0.5131119502780163 0.3617405848213254 0  0.1948220106098172 0.3081993407644811 0  1.845656689180403 0.1998310418452388 0  2.144958525570388 0.2909790873294231 0  2.2 0.15375 0  0.8833025251326762 0.2625402923007629 0  0.171875 0.3653875762360952 0  1.57794966442982 0.3540357145964566 0  0.446875 0.366068291212731 0  0.4272051715206439 0.2891929346190664 0  1.508991196088596 0.1421783375065625 0  1.50436820029908 0.06143401634903343 0  1.223857000523521 0.08235548624535324 0  0.6137904613287555 0.3066826366281556 0  1.153316824384777 0.1289850171317838 0  0.9751573703656133 0.327632618473408 0  2.148922302309752 0.1258841779285271 0  0.9281250000000001 0.3643758685795699 0  1.621993280276081 0.2841214267927899 0  1.550118654119087 0.2461998729100966 0  1.327182649291491 0.1216967252533594 0  0.9939955742738924 0.04663549843168518 0  1.753125 0.04556020050186112 0  1.271875 0.04556020050186116 0  0.9734326767716519 0.1506854560854393 0  0.103125 0.3675775577080512 0  1.94956388244759 0.1180512551534177 0  1.949997712993411 0.04965831614304109 0  0.717433898748555 0.295596016333797 0  1.771961817615021 0.1530278789497521 0  1.909246823951428 0.2812757146784527 0  0 0.35875 0  1.050632804931928 0.1226269704412814 0  0.05695108326502596 0.2024009637347154 0  1.948575539857022 0.2445328248721197 0  1.697271520964565 0.1233917627620729 0  1.065625 0.3689344961371042 0  1.085849084308977 0.3170853572226867 0  0.1015495998772944 0.04226029099983852 0  1.577403511714593 0.05463601888079143 0  1.751571320346033 0.3651102912045228 0  2.2 0.35875 0  0.7441773632462837 0.1786786606458751 0  0 0.05125 0  1.466879772203159 0.3611261772912453 0  0.6282230348858767 0.3577675483994025 0  1.990280163552011 0.3564754268533217 0  1.17471064520912 0.2990917256188288 0  0 0.25625 0  2.2 0.25625 0  2.2 0.05125 0  0 0.15375 0  1.853978576207987 0.35875 0  1.515638456102889 0.2882700110184686 0  2.150453692751374 0.2387066338105111 0  1.323782677156475 0.04897634338873398 0  1.409375 0.03715320121951221 0  1.406484531114799 0.1087852750766809 0  1.134375 0.03715320121951219 0  0.721875 0.3729363922161693 0  0.7941695928236929 0.3696489254637395 0  0.7934827162619036 0.3013409431456604 0  1.627401732573545 0.04552157221025036 0  0.9352049974617431 0.2507047965699472 0  0.8763260682738339 0.3611103317460093 0  2.045405893604797 0.1105340662939892 0  1.255408269734577 0.1577307500159216 0  2.028125 0.03707597992059326 0  1.003030137506755 0.3689344961371042 0  1.248258025468107 0.2565907092181813 0  1.203125 0.03661323374043041 0  0.4800125512335631 0.0549472816999725 0  2.072662025974815 0.2975086504196739 0  0.240625 0.3729825336867542 0  1.113252391110535 0.10238286244357 0  1.071052763974265 0.1885202618768825 0  0.8738809401657862 0.3106483608284829 0  0.6786819423003397 0.2677558482644021 0  1.887722846421017 0.1760882698830035 0  1.472640588990488 0.1118278026240017 0  0.5843750000000001 0.41 0  1.865937103925594 0.2604137786483804 0  1.463913572748262 0.2030442564990043 0  1.376426316059077 0.3186741374914345 0  0.1038643885363755 0.2162701735320032 0  0.1769473813227781 0.1070849728467114 0  0.458787839809176 0.171541653775316 0  0.240625 0 0  0.04179569703428024 0.2877217852556549 0  0.1258346557601885 0.2699740073054968 0  1.722140693354707 0.282908100935778 0  0.41206179117512 0.2448172567039922 0  0.3702471778075604 0.2265217604228704 0  0.3714881805374215 0.1786967818665642 0  1.77397096061971 0.2481483237422926 0  2.105123889160691 0.03743885948498647 0  1.001138337938679 0.229719337663998 0  1.051242910646791 0.2854826559431138 0  1.395420985247586 0.18
[...]
<PointData  Scalars="f_43"> 
<DataArray  type="Float64"  Name="f_43"  format="ascii">1.0842867743068989e-01  2.0487484216547003e-01  9.4062335608683484e-11  3.3064237155623488e-10  8.0881718069066702e-02  8.4153013489001199e-02  7.0686128732026621e-02  6.7049719536922875e-02  1.3752216786258650e-01  1.3879250386033404e-01  8.9593961013212944e-02  7.1542244983582540e-02  -4.4261309781456256e-03  -4.3581649896668748e-03  -8.6515489151295869e-03  -1.5602234883953049e-02  3.4327272707381083e-02  -6.7459964524033194e-03  -2.1170685137450723e-02  8.7059782040283931e-02  1.5884791167567583e-01  1.5274294496544430e-01  7.5407200141345193e-02  1.5866934955723628e-02  -1.9781586666303641e-02  -3.3808339647853715e-02  -2.4115930721559931e-02  -1.0520865813109452e-02  3.9931611206637371e-03  1.1855354073700600e-01  2.2002140544238784e-03  5.7466049972670852e-02  4.8041270263877250e-02  1.0182879590504952e-01  -2.3834828384527861e-03  9.3244065680249733e-02  1.8591672958514494e-03  -4.0384824188695488e-03  2.7855947344082883e-03  7.2639773096981261e-03  7.2078751749817720e-03  1.3287369403011990e-02  7.7711759654073859e-03  3.5907415240484311e-03  3.6397692497764449e-03  8.9688988520324909e-03  5.4232066032421618e-03  -4.6013025485459897e-03  8.9020181337998751e-03  1.8444096989725488e-10  2.7127961574608815e-03  8.0832206912135385e-02  1.7989679047302699e-03  1.8144580022499898e-03  2.8770657657473617e-10  5.4744792464533750e-03  1.1804702572797993e-02  9.5370267246479325e-03  5.3723134286608925e-03  8.5861794521656862e-03  2.6498713238522439e-03  1.0679874345319501e-01  1.1444122432073520e-01  1.0743135263735919e-01  8.9371479565914166e-03  -3.6377058461248050e-03  1.5307539885384042e-02  -2.3877298434669832e-03  3.1474944597188223e-03  7.2214467614630977e-03  1.7758227499724050e-03  9.1957324037597293e-02  1.0022018358489013e-01  6.9106782066525041e-03  2.1004525601095816e-03  7.7223971416998383e-03  -7.4074071937573871e-04  3.9931374280120684e-03  1.4064910430248848e-03  4.5465523580955677e-03  1.0919748238409195e-01  1.2904422186814168e-01  1.3257127282667960e-03  7.2369285636375486e-02  2.6990756516110850e-03  8.8461705795122216e-03  8.1903162806787836e-03  3.2345275547787634e-03  3.1774688135674648e-03  5.8813235852047544e-03  1.4927266096186963e-02  1.6707888452214797e-03  -5.5418380083622270e-03  2.2842544125767824e-10  2.5018414251668907e-03  8.7236237835090925e-03  1.1122000978656191e-02  9.7773794472774209e-03  2.3892116262302010e-03  -2.8620549045358383e-03  3.9579147827112134e-03  2.4316037277228753e-02  5.7386117606822856e-03  -3.4136597653321868e-03  9.5295344989916181e-03  1.1373687047607393e-01  9.0710943473150493e-02  1.2905654198474770e-01  1.0558957181276898e-01  2.6702956974613426e-03  -3.1851986819330992e-03  -3.7843552474471813e-03  1.0688102087226591e-03  8.9786076255453904e-04  1.2847945486814016e-01  5.6987537446265765e-03  7.9001770253710104e-03  8.7185227267242121e-02  9.5791104848549830e-02  3.4877709265586747e-02  4.8353587019261323e-03  1.2138935874100851e-01  6.3866999602402814e-03  1.0882751444030964e-01  1.8917872424167130e-03  2.1361055878402033e-03  2.1372036710464861e-04  1.0331246824609899e-01  -1.9172470752443320e-03  9.7281551231842789e-02  2.5071094955352855e-03  2.2297440831871170e-03  -1.2877214803100967e-03  1.0196759785433747e-02  1.3347192810936680e-02  1.5235593350941554e-02  -9.7378398908982001e-04  6.2819575044809955e-03  3.9796673622537748e-03  1.1979123794304993e-02  6.8548630762336193e-03  1.1640265135036087e-02  1.1727404719387209e-01  -1.8013946505193003e-03  -7.5950426697905258e-03  7.3843101782184145e-04  8.5646975405459513e-02  8.9590674670385104e-02  8.7870402043884660e-02  1.0133036267987808e-01  8.2591229232068016e-03  1.0657158475616645e-01  -1.3292390091493419e-03  1.0874639201439576e-01  1.0590013263250811e-01  8.0380460699431746e-03  7.4794133471959368e-03  4.8994905270531349e-03  4.4804163817158005e-03  1.1207435110789709e-02  8.6515346617724691e-03  4.5547075367828385e-03  9.0479760176507998e-04  3.0134257011803084e-03  6.8841445016425820e-02  1.1248975029489785e-02  2.6788447235582980e-03  -1.9292888776654593e-03  6.2704903166426566e-03  2.6967671329718350e-03  2.7247778783295890e-03  -3.3459452364937034e-03  6.7442077002501924e-03  2.2653349918838575e-03  6.6224508161587163e-03  8.8103632193868464e-02  1.0198464723435761e-01  1.2900903978495690e-01  8.4129922239555639e-04  6.9921096086049250e-03  7.8486177013881286e-03  8.3381054410277163e-03  9.2793660753896616e-04  1.8278366095856055e-03  2.4476401008614889e-03  3.3733137426445875e-03  3.9727411506541646e-03  1.7080218013748919e-03  8.1822390484115284e-02  -2.8997930375740696e-03  4.1390611755428679e-03  8.9555974139717054e-02  7.7203235129135418e-03  6.1982842071039547e-03  9.8948092762044127e-03  2.1827226457542702e-03  8.5693676573302298e-03  8.4384060418021892e-03  4.1050713250203328e-03  5.2501264203292644e-03  5.0422946253450189e-03  3.8922340707432724e-03  -3.0378636347187845e-03  1.1873640979325206e-01  1.0663847320282459e-01  1.9954598999390146e-03  -6.8822899984309442e-04  4.8558885342434395e-03  1.0685298801787725e-01  9.0846187852420407e-03  8.7533816588416889e-03  4.6504642215161353e-02  5.8801342925279061e-02  9.3020908284900464e-02  4.6549983844426136e-03  7.2323911047926818e-04  -2.0184096356138677e-10  7.5062484438010455e-04  1.0379654399935305e-01  8.0656453184170737e-03  7.5689905478774869e-02  8.7140676569517392e-02  9.3230047888590833e-03  9.7007121289711049e-03  1.4095575473016504e-02  8.3018263125436437e-04  5.7153717343347409e-03  2.9075685980901682e-03  6.7021536116874806e-04  3.2543023513690720e-03  7.5955502857213957e-03  8.4404365327401289e-03  1.3666183773996032e-02  -3.4505204408285966e-03  5.8221622183502932e-03  1.5452138013775468e-02  -6.0722891667309752e-03  1.0797384377885319e-01  3.2767594951394691e-03  3.2661760427282315e-03  -2.0893816534093756e-03  5.6040926426189188e-03  3.8374350853316599e-03  1.0826122866315671e-01  -5.7145860805467939e-03  1.2121626291776481e-01  3.3104336644539088e-03  6.5724400885208561e-03  3.0410088121739544e-03  2.7247816184314856e-03  1.2320814667306945e-01  8.3307372796993361e-03  5.9504273976592262e-03  3.3064237155623488e-10  -2.4392769063311111e-03  1.3777840813232203e-01  8.6830011344468105e-03  1.8004086468757757e-02  2.7706009225950908e-03  2.0333712635618724e-03  1.1262177561642631e-01  1.8444096989725488e-10  9.4062335608683484e-11  1.2426941482040364e-01  4.5844069105883496e-03  8.6745424702702328e-03  6.5161843267943359e-04  1.4755497794322663e-02  1.2242984908288162e-02  1.1841299272191177e-02  6.9801181588954693e-03  5.4523649732592739e-03  2.7941335420864142e-03  1.5957659845511625e-03  7.5482443422950803e-03  -1.6506544985614199e-03  2.8987804420010613e-03  2.0252249306125722e-03  1.2626138940017758e-02  2.2502869157642008e-03  3.4032290084311280e-03  5.2088910586484440e-03  1.3341472498806866e-02  1.0960468571022899e-01  1.6793596529123028e-03  9.6385988395662342e-02  1.5484984538122585e-03  -5.2336092755378731e-03  1.9676678455397283e-03  -9.9966434638194494e-03  4.0956569244018923e-03  1.0196482661196391e-02  3.5673305184696656e-02  4.4069858927627374e-03  9.5316394572345243e-03  7.9375626468905988e-03  1.2416528503631775e-01  1.0786085980956814e-01  1.1721072966730998e-01  1.0293037792017590e-01  1.1043647853654347e-01  1.0666520925680988e-01  6.3201884613486876e-03  9.2514799863010408e-02  9.2646268756512454e-02  9.3750289627626424e-02  5.6218442929468837e-03  1.2419456078557704e-03  -4.8887877108277564e-03  9.5678096977365294e-04  1.0416698080353524e-02  2.2705811835786209e-03  8.3252500081848868e-02  7.8732959464919636e-03  1.2790920230878486e-01  1.3278740846297835e-01  6.5791653704976960e-04  -1.2745538932863718e-03  9.2878661747676491e-02  5.1350185033333367e-03  2.7603723213771533e-03  9.0088985027603707e-02  8.5173498417811702e-02  8.6479283517324743e-02  4.9292645868669125e-04  1.3608388753762338e-03  1.6432969410715129e-03  -3.6206879817096958e-03  -4.7109152118275594e-03  7.6700302293599984e-03  1.0848335281355042e-02  5.3091959120729363e-03  3.9819614452291097e-02  1.4123592514155950e-01  1.0817724364583101e-01  2.5585047893905166e-03  9.0783046002246622e-03  -3.8639814699769656e-05  8.9985436294145071e-02  9.1919316714358171e-02  8.5133675394552261e-03  1.0307412186097712e-02  7.4726681495921026e-03  8.3553490406359926e-03  -2.0085518762532361e-03  6.7356981825669035e-03  6.4148036814683871e-03  5.3162861894350683e-04  5.3560408413337113e-04  1.3113033497296286e-01  1.3392062013895367e-01  1.0845250951428881e-01  1.1431168198955631e-01  -2.4663942603723042e-03  -1.5661420018891026e-03  7.4322302702079374e-03  5.2451569622001312e-03  4.3357595489895324e-03  8.9598012049191822e-02  8.2455785897117731e-02  1.0188616170862799e-01  8.8595708627506615e-03  3.3522946948470757e-03  1.8470509725816396e-03  1.3819835497161650e-01  -1.1571173111288857e-03  5.0158624965269969e-03  6.1490228687748104e-03  7.0850079642236071e-03  1.1013645352499143e-01  1.8801234214851617e-03  9.7791674524774025e-02  8.7597015627651695e-02  8.4698583091497807e-03  2.8575312689310896e-03  9.0467671801318650e-02  1.3901395061302129e-03  1.0583103918093088e-02  -1.8576900059975288e-03  1.0366780333492835e-01  7.9776569982445613e-03  -1.6796917503120222e-03  1.0854860311937035e-01  1.0216726658784288e-01  7.7991529486015038e-02  -3.3611356472416803e-03  -2.5827246385778874e-03  2.4387953014203766e-03  2.3430552953371919e-03  5.1341915469686977e-04  1.2858659077976139e-01  6.2148757402951220e-03  8.0687556595246929e-02  9.6898798560437399e-02  9.2049235874192470e-04  -3.6765027602044817e-03  2.7564872365714449e-03  5.4508220652337611e-02  4.0961792688949360e-03  9.7200809091313831e-02  4.4669734363904055e-03  4.0350274148005048e-03  3.5464519283904608e-03  8.8232046673507064e-02  9.4554263541340427e-03  -1.6360583392156531e-04  6.3574968138624590e-03  -4.1568125923267824e-03  2.5693745618124656e-03  6.9979385345877469e-03  7.1728359598682637e-03  8.6546948578570995e-02  1.1583065745383749e-01  2.1524267878165839e-03  1.1023435034208495e-02  8.8430830602585053e-02  2.8791891832827790e-03  1.2488507330924527e-01  5.4950068549286602e-03  -4.1955952718900107e-04  -3.8640644341498428e-03  2.4567631810131271e-02  9.4437583587134079e-03  -9.7787741136052438e-03  2.1903631021985216e-03  9.0314670047354391e-03  8.7982707801448276e-03  1.0863003654836127e-01  1.8315358432620622e-03  2.6391452460473347e-03  3.3013271574568416e-03  -7.1201400487638778e-04  9.2101678805307022e-03  4.7306917838382703e-04  -1.7473820156762331e-03  -2.7780374114228326e-03  -1.3721838858558209e-03  5.9491621057160202e-03  9.9903087619609369e-03  6.1125723048592994e-03  1.3768124719049009e-02  1.2820849916647300e-02  1.3759103267995051e-02  6.7381200048240936e-03  1.2228732063361447e-02  2.9651579938308136e-03  8.4189671279891937e-02  1.3961328725400455e-02  1.1350672287904132e-02  7.8246929476405470e-03  7.0354010094835729e-03  -1.5622798078145364e-03  -2.7124526562304521e-03  7.5251863886573803e-03  7.9567013727701794e-03  8.4586078198491694e-03  8.1320635255203180e-02  8.4264989530287299e-02  1.7329784439720421e-03  4.9265167235260192e-03  8.8542771346044907e-02  1.8031648360108891e-03  2.2740176776752385e-03  1.4792340965633444e-02  1.2027873043213542e-03  3.6514818648115204e-03  -8.2417087975583843e-04  1.0899878932845437e-03  4.8263494472276417e-04  5.6756210775746269e-03  8.9115562743498425e-03  -6.3051135230914063e-03  -7.0320417197957544e-03  -6.6505251374846339e-03  -2.1102357654403528e-03  1.3310204133457135e-01  1.0965683420749270e-01  1.2157498126510251e-02  2.8098694501347437e-03  1.0420801517556455e-01  -5.1781687990962869e-03  4.6111159099601303e-04  1.0487085223871318e-03  3.1939322944095237e-03  1.2050944091191271e-03  6.6834278115259771e-03  4.4668501736605552e-03  5.2156818043478676e-03  -2.8031763639470649e-03  2.8751702977085425e-03  -6.5437385540430600e-03  2.0523773926757138e-02  -4.2664393491257252e-03  -1.5958869670674238e-04  -1.6875449666057458e-03  2.0451910021302977e-03  1.9119269079374548e-03  5.5738916565521712e-03  6.8754693469252276e-03  7.6616201507508832e-03  2.1508937068811964e-03  9.4983164211903490e-02  1.0438739926196405e-01  1.0102586537739964e-02  1.0256045306888959e-03  2.2693607272122121e-03  4.5322323571176703e-03  -1.8762756190620446e-03  1.4954328830363630e-02  -3.4171707071034489e-03  8.5326460086995667e-03  6.8292677164564740e-03  2.7138773366830256e-03  2.2448482465744989e-03  -6.5415760774093475e-03  3.1620082849281262e-03  4.3623467842004108e-03  2.3688048998581441e-03  1.0050751796425832e-01  1.0659309072950915e-01  1.0581370113650544e-02  1.4360243048136198e-02  4.5124071035877223e-04  1.3452888120709160e-03  5.0595292510609664e-03  7.7755118396364035e-03  1.2205378182609118e-02  8.7012232365924185e-03  5.9333731406454957e-03  2.4902738543609243e-03  5.8186563968190266e-03  2.4729343980511276e-03  8.3581636405345751e-03  4.5520300520172279e-04  1.0777731375740696e-01  7.6014902813761179e-02  1.0506779120265206e-01  9.7137549084648070e-02  1.1838871341185993e-01  1.0865989789114208e-01  1.0506525198079343e-01  1.0861603653789188e-01  1.9769125073852102e-03  2.1115909712439247e-03  5.9622487590642530e-02  1.5116373154129056e-02  1.6696131760189398e-03  1.3910122913779070e-02  2.7230831384511861e-03  7.7161649715240307e-03  3.1440416970421230e-03  1.5685522494528835e-02  -3.2694843867650675e-03  2.2492938238924840e-03  3.1792586313096859e-03  -3.2349682913145449e-03  6.3980085314488790e-03  9.1986687769797071e-02  7.1952180912898234e-02  5.0328113549725231e-02  3.8578395035343879e-03  2.4791943631507604e-03  1.2571081062111755e-01  1.0859497117293594e-02  6.9615145002865789e-03  2.4337978289607908e-03  2.9289291853993309e-02  9.0621503132717260e-02  8.4198701740005703e-03  6.6841931018345796e-03  8.2294707372469925e-02  1.8541386442868929e-03  8.4645778607002915e-03  8.7462396280857668e-03  3.8127796185916762e-03  8.6768129452891689e-03  8.4599016797684539e-03  6.5816619411482400e-03  4.0674582101171324e-03  2.7788672827664799e-03  6.4891003152454801e-03  4.8474709831042000e-03  7.0079261736055434e-03  1.0008459671079314e-02  3.6201818796360299e-03  8.6311550389647790e-03  7.9949107486393719e-03  1.8128534165385447e-03  1.4778485338678379e-03  1.0176348246671965e-01  6.8147727393190111e-02  -1.5643855369031580e-03  -1.8099495922223661e-03  1.1038241956272612e-02  2.9580243864144951e-03  3.6211917694925397e-03  3.7418389183876445e-03  1.5025272744852651e-03  -2.9283774087020958e-03  2.1142666764595885e-03  5.2444370194952546e-03  1.0309917144920742e-01  4.8486830795136261e-03  6.6511730607627254e-03  4.7062502607261277e-03  3.1225376315509737e-03  1.0764671223981544e-01  4.1685688351045182e-04  7.6034477660544828e-04  8.3751062779356018e-03  8.4822315302665263e-02  -2.1093160161708469e-02  8.2366756338737405e-03  7.3197740066381989e-03  3.8671419175413261e-03  1.2810404363772765e-01  8.1862917866114566e-03  -3.0314390385239964e-03  7.8736699896214540e-03  -4.5461970179562868e-04  1.0707396447308175e-01  1.1367478190206358e-01  8.8100653528737846e-03  1.3902295188353224e-02  1.3200618120635588e-01  1.0826631939917167e-01  4.3255231268851746e-03  1.4772474216695856e-03  3.4241099677740808e-03  1.0768836377935111e-02  3.1722590511668054e-03  8.5680023672321960e-03  5.1216160934396161e-03  1.9187054347512271e-03  5.9844383300846158e-03  1.1330694680766834e-01  1.0035927968029033e-01  6.0992374637621289e-03  7.6801972893010108e-03  3.4000273879465004e-03  4.4452343630999097e-03  7.0575240276223089e-03  1.0351971218415046e-02  9.7140436638258523e-03  5.3744920331607066e-03  4.8058111622910453e-03  1.4012087922711416e-03  9.8789651691485840e-03  2.9816644817267854e-03  1.5823541802561777e-01  1.0833699900990301e-01  8.8181298945191455e-03  3.9364076769603778e-03  -6.4721304561828827e-03  1.0179492924655968e-01  4.8729888717347547e-03  8.3454469251747938e-03  1.0992846269872110e-01  8.3922194471036091e-02  2.8764709127325084e-03  1.1031379644408208e-01  8.9274948587542730e-02  6.8592821015876233e-03  -1.0005293478807669e-02  1.5259232512806007e-02  5.1130006830448479e-02  1.5190479591899812e-02  4.7841302729004246e-03  -4.5602975080398563e-03  1.3114310300517257e-03  1.2095534393199826e-01  4.8564724021824502e-03  5.7804717178086065e-03  7.5016871351870611e-03  4.2462763662159727e-03  1.8444096989725488e-10  9.0608765876956987e-02  1.0568262611671540e-03  9.8465562595662060e-04  -2.5910153557126780e-03  2.9695771313941960e-03  7.2688196698482595e-03  1.1023135221649223e-01  1.2517132387803098e-01  4.6410615636510955e-04  1.7891983214380557e-03  8.6276217528272567e-02  9.9506620484359681e-02  1.2249428140572605e-01  4.0083628846887907e-03  9.7583683132877429e-03  9.3541031879877477e-03  8.9305572635704922e-03  9.0585021541305377e-03  1.1364678057767731e-02  4.3653153942176713e-03  1.7216865158635824e-03  1.1406377618713889e-01  8.4402608592717594e-03  9.1312458419876529e-03  1.5964808282432862e-03  4.7332298787832995e-02  9.0835596149827488e-02  8.2636523430202335e-02  4.2601142468932669e-03  1.1252732920530920e-01  1.5499032748979015e-02  7.2045341366613752e-03  -4.0828823112461126e-03  -2.6457930665572988e-03  1.1545777984187449e-03  1.4178815198628244e-03  2.2842544125767824e-10  1.3456595889649287e-01  8.8100607891911847e-02  3.7663613365834518e-03  5.8352150954792950e-03  -1.2972696725106159e-04  4.5424051501429105e-03  6.1276162344313153e-03  1.0295456251394809e-01  9.3796365530758111e-02  1.7027751676150657e-02  2.5327842382137900e-03  6.4537715797323300e-02  -3.6083195390082417e-03  2.5397067427356673e-03  9.7802410296092372e-03  7.3871143907872205e-03  3.1627435491553085e-02  7.9061142224990649e-03  5.4288190706230383e-03  5.7029835521503645e-03  8.3440468136054629e-04  9.1794075743858365e-04  3.8262225333965117e-04  8.0644320531041966e-02  5.3985121897498670e-02  4.3160905394999680e-03  2.8102450973637974e-03  -4.9935095126338556e-03  2.8366578385027623e-03  1.5249347400385527e-02  6.0474413574180923e-03  5.5456027301806956e-03  1.1689943023600398e-01  8.0435443719329824e-03  9.1337320436575015e-03  1.6020677228564730e-03  1.0842251651596631e-01  1.0803269447501653e-02  8.4139821860343564e-02  -3.3471083854994298e-03  1.0362399740367796e-01  2.2271445110493265e-03  1.5301834549295278e-02  1.8656279639227128e-03  8.9678851056040135e-02  -9.5231591623436672e-04  -3.3611779214222288e-03  1.8444096989725488e-10  3.1926831279323691e-03  1.0803378297364430e-03  8.1045901449842295e-03  7.7594313467685859e-03  9.0738027473015001e-02  8.8552564820748095e-02  3.6576234214817727e-03  6.9679639684826742e-04  3.3942082253068779e-03  1.4507721639715619e-03  8.7083977580176778e-03  8.2549350925239569e-03  8.1650045262549563e-03  7.4388537472467792e-02  7.1421712556798290e-03  -2.4368476804787296e-03  1.2433682466199147e-02  7.6552233048899614e-03  3.1530894940995698e-03  2.2891401843034825e-03  2.8199125835294075e-03  5.0432555110248032e-03  5.5813628586305333e-03  3.6167843828511827e-03  3.4534281341485908e-03  1.0084846731313875e-01  1.1056898006807797e-01  6.2670758013901829e-03  1.1754301357410153e-01  1.0632213274991094e-01  5.7613282237029663e-03  -5.3347612833324828e-03  -6.3438149961333404e-03  -3.5335970598141652e-03  2.1406817621714663e-03  -2.3333672249167951e-03  8.8138443219525492e-03  7.8082260360709088e-02  4.2243618647238275e-03  3.6888462587359974e-03  -2.1899458208898023e-04  8.1605546168252122e-02  -2.1552498222766162e-04  6.7108796504461530e-03  1.3163399682822732e-02  1.1965816094605285e-01  1.0830835453424484e-01  7.9132793967993231e-03  -1.7519582559010510e-04  1.2730293827167871e-02  7.9168219971218843e-03  1.2977881291884182e-02  1.0827701268885476e-01  5.8982875434544771e-03  9.3250884554636995e-02  8.5672377134342823e-03  7.0310441700419252e-02  8.9256607876327251e-04  5.2646217709731912e-03  6.7428087731916395e-03  1.0793272544238269e-01  5.8497666120583000e-03  8.6535498880275282e-03  8.7568460106433044e-03  8.66569