<?xml version="1.0"?>
<VTKFile type="UnstructuredGrid"  version="0.1"  >
<UnstructuredGrid>
<Piece  NumberOfPoints="1404" NumberOfCells="2604">
<Points>
<DataArray  type="Float64"  NumberOfComponents="3"  format="ascii">0 0.41 0  0 0 0  2.2 0 0  2.2 0.41 0  0.2353553390593274 0.2353553390593274 0  0.25 0.2 0  0.2353553390593274 0.1646446609406726 0  0.2 0.15 0  0.1646446609406726 0.1646446609406726 0  0.15 0.2 0  0.1646446609406726 0.2353553390593274 0  0.2 0.25 0  0.6923879532511287 0.188268343236509 0  0.7 0.15 0  0.6923879532511287 0.1117316567634909 0  0.6707106781186547 0.07928932188134523 0  0.6382683432365089 0.05761204674887133 0  0.6 0.04999999999999999 0  0.5617316567634909 0.05761204674887134 0  0.5292893218813453 0.07928932188134524 0  0.5076120467488713 0.111731656763491 0  0.5 0.15 0  0.5076120467488713 0.188268343236509 0  0.5292893218813453 0.2207106781186547 0  0.561731656763491 0.2423879532511287 0  0.6 0.25 0  0.6382683432365089 0.2423879532511287 0  0.6707106781186547 0.2207106781186547 0  1.1 0 0  0 0.205 0  1.1 0.41 0  0.55 0 0  0.55 0.41 0  0.275 0 0  0.8250000000000001 0 0  0.275 0.41 0  0.8250000000000001 0.41 0  0.6875 0 0  0.61875 0 0  1.65 0.41 0  1.65 0 0  1.375 0 0  1.375 0.41 0  1.925 0 0  1.925 0.41 0  1.5125 0.205 0  1.7875 0.205 0  0.9625000000000001 0.205 0  1.2375 0.205 0  2.2 0.205 0  1.99375 0.2152743902439024 0  0.4125 0.41 0  2.0625 0 0  2.0625 0.41 0  2.2 0.3075 0  1.7875 0.41 0  1.375 0.1486128048780488 0  1.5125 0 0  1.7875 0 0  1.5125 0.41 0  0.9625000000000001 0.41 0  0.4125 0 0  0.1375 0 0  0.1375 0.41 0  0.6875 0.41 0  0.9625000000000001 0 0  1.2375 0 0  1.1 0.1486128048780488 0  1.2375 0.41 0  1.65 0.1486128048780487 0  0.823495464168302 0.2603780552348366 0  0.3738707794507017 0.2720196349488618 0  0.3662291281331582 0.1311456406657909 0  1.676715909090909 0.2793064024390244 0  1.126715909090909 0.2793064024390244 0  1.348284090909091 0.2793064024390244 0  0.8287581077665108 0.1302150898054257 0  1.894702181800738 0.1282910975492754 0  2.092797818199262 0.1282910975492754 0  1.85625 0.3075 0  0 0.3075 0  0 0.1025 0  2.099172119769978 0.25625 0  0.4752414543992246 0.3180372603390748 0  1.99375 0.08395950269330846 0  1.459960956013612 0.3075 0  1.569025960719943 0.2986889805672169 0  1.03125 0.3278689922742084 0  1.959375 0.3126371951219512 0  1.749222215368287 0.1025 0  1.275777784631713 0.1025 0  0.9228016959331474 0.3075 0  1.000777784631713 0.1025 0  2.2 0.1025 0  1.225938124459196 0.3075 0  1.550777784631713 0.1025 0  1.44375 0.07430640243902442 0  1.16875 0.07430640243902439 0  0.7562500000000001 0.3358727844323386 0  0.89375 0 0  1.899250267340833 0.2229966846119207 0  0.61875 0.41 0  1.766482954545455 0.2934032012195123 0  1.046078563095834 0.2389031808701145 0  1.421109702350723 0.2261157654379721 0  0.07567171807980319 0.25625 0  0.2511897295290552 0.3235829392832554 0  0.07655002503762308 0.1488653460959645 0  0.1377245246847496 0.3206030474919778 0  0.6694099692696568 0.3242771941727899 0  0.9168971191497528 0.1295727156104653 0  0.7562500000000001 0 0  2.118919042110979 0.3422084711244843 0  2.13125 0 0  0.06875000000000001 0 0  1.30625 0.41 0  1.597888256393107 0.2173787389261347 0  0.34375 0.41 0  0.2493272016354703 0.08091360081773515 0  0.5588896233436766 0.3264056208677571 0  1.829299675393195 0.07400700849299596 0  0.1334079128307869 0.08523463035786674 0  1.71875 0.41 0  0.06875000000000001 0.41 0  1.16875 0.41 0  2.038220665644273 0.332420740103091 0  0.8810647413215221 0.2027360103977071 0  0.34375 0 0  0.7453891198966415 0.2471459041008237 0  0.42112093004955 0.1988123139090554 0  0.8314023090855964 0.3351170841770613 0  0.89375 0.41 0  0.7906250000000001 0.06615386481594063 0  1.452769549894695 0.1548122580621249 0  1.369219062229598 0.07430640243902442 0  1.30625 0 0  1.07420695807087 0.07430640243902439 0  1.720943423819132 0.1714577452753128 0  1.157188124459196 0.205 0  1.304056576180868 0.1714577452753128 0  1.67579304192913 0.07430640243902437 0  1.209670467133757 0.136210026696477 0  0.4312800784902823 0.08036147352247747 0  0.8723959680194693 0.07066860609690805 0  1.025335513626278 0.1700681449722324 0  0.7945632284247136 0.1940204203251442 0  0.378125 0.3452261501101892 0  0.3307109909790086 0.2037165635083759 0  0.3009701032039409 0.2702970083403109 0  0.20625 0.41 0  1.58125 0 0  0.4812500000000001 0 0  0.9838963872396855 0.2722244191167347 0  0.06772484939107212 0.3260067317374387 0  0.20625 0 0  1.58125 0.41 0  1.631724228912893 0.3381867502687533 0  1.825608881788174 0.14499488549201 0  1.85625 0 0  1.44375 0 0  1.44375 0.41 0  1.85625 0.41 0  2.13125 0.41 0  0.7562500000000001 0.41 0  0.4812500000000001 0.41 0  1.16875 0 0  1.03125 0.41 0  1.03125 0 0  1.71875 0 0  1.99375 0 0  1.99375 0.41 0  0.9408708167433545 0.0651989315768642 0  1.340625 0.3489494290853124 0  1.134375 0.3489494290853123 0  1.700180620188976 0.3438659752031281 0  0.29668452290037 0.1318471691375986 0  0.3175441051360096 0.06496934809856265 0  0.06509151636162461 0.08140814015999148 0  2.135782184673599 0.07126652247502523 0  1.668441847249787 0.2129203728327609 0  1.295782514339747 0.2378437748815763 0  1.409375 0.3520314716057996 0  2.129248544730567 0.1906135162504124 0  2.060771381434487 0.1989445750470348 0  2.013252586573865 0.1496169464686054 0  1.942766402200229 0.1734448904596831 0  1.895522487186454 0.06076163953489683 0  2.069553871656643 0.06605731020975725 0  0.4670911801404742 0.2498408582391372 0  0.7622743084658112 0.1264100838268133 0  1.274680914880868 0.3520219391081363 0  0.3148669572599245 0.3331753056385887 0  1.614713220494657 0.09473434380863296 0  1.72990325744076 0.2380068107952482 0  1.356580098625191 0.2120393231351682 0  2.034370752044885 0.2668681600792073 0  1.51768709249349 0.3426260931494756 0  1.561883724969884 0.1650446847858835 0  1.197344062229598 0.2523725417393646 0  1.804085235518364 0.3468178408964637 0  1.817887819205233 0.2589243285818559 0  1.905897727272727 0.3485060975609756 0  0.7296439733931823 0.06337466644369745 0  0.4250935971865949 0.1394919578475796 0  0.3773030136511669 0.05130372097998036 0  1.192836486056382 0.3562350748565544 0  1.1029124365364 0.226143510831178 0  1.28257088594801 0.2944411014911587 0  0.1905185804731426 0.06029880676029167 0  1.474860187679412 0.2504218616229368 0  1.406767003493824 0.2829282258560709 0  0.5209826960981064 0.2830664557824064 0  0.5131119502780163 0.3617405848213254 0  0.1948220106098172 0.3081993407644811 0  1.845656689180403 0.1998310418452388 0  2.144958525570388 0.2909790873294231 0  2.2 0.15375 0  0.8833025251326762 0.2625402923007629 0  0.171875 0.3653875762360952 0  1.57794966442982 0.3540357145964566 0  0.446875 0.366068291212731 0  0.4272051715206439 0.2891929346190664 0  1.508991196088596 0.1421783375065625 0  1.50436820029908 0.06143401634903343 0  1.223857000523521 0.08235548624535324 0  0.6137904613287555 0.3066826366281556 0  1.153316824384777 0.1289850171317838 0  0.9751573703656133 0.327632618473408 0  2.148922302309752 0.1258841779285271 0  0.9281250000000001 0.3643758685795699 0  1.621993280276081 0.2841214267927899 0  1.550118654119087 0.2461998729100966 0  1.327182649291491 0.1216967252533594 0  0.9939955742738924 0.04663549843168518 0  1.753125 0.04556020050186112 0  1.271875 0.04556020050186116 0  0.9734326767716519 0.1506854560854393 0  0.103125 0.3675775577080512 0  1.94956388244759 0.1180512551534177 0  1.949997712993411 0.04965831614304109 0  0.717433898748555 0.295596016333797 0  1.771961817615021 0.1530278789497521 0  1.909246823951428 0.2812757146784527 0  0 0.35875 0  1.050632804931928 0.1226269704412814 0  0.05695108326502596 0.2024009637347154 0  1.948575539857022 0.2445328248721197 0  1.697271520964565 0.1233917627620729 0  1.065625 0.3689344961371042 0  1.085849084308977 0.3170853572226867 0  0.1015495998772944 0.04226029099983852 0  1.577403511714593 0.05463601888079143 0  1.751571320346033 0.3651102912045228 0  2.2 0.35875 0  0.7441773632462837 0.1786786606458751 0  0 0.05125 0  1.466879772203159 0.3611261772912453 0  0.6282230348858767 0.3577675483994025 0  1.990280163552011 0.3564754268533217 0  1.17471064520912 0.2990917256188288 0  0 0.25625 0  2.2 0.25625 0  2.2 0.05125 0  0 0.15375 0  1.853978576207987 0.35875 0  1.515638456102889 0.2882700110184686 0  2.150453692751374 0.2387066338105111 0  1.323782677156475 0.04897634338873398 0  1.409375 0.03715320121951221 0  1.406484531114799 0.1087852750766809 0  1.134375 0.03715320121951219 0  0.721875 0.3729363922161693 0  0.7941695928236929 0.3696489254637395 0  0.7934827162619036 0.3013409431456604 0  1.627401732573545 0.04552157221025036 0  0.9352049974617431 0.2507047965699472 0  0.8763260682738339 0.3611103317460093 0  2.045405893604797 0.1105340662939892 0  1.255408269734577 0.1577307500159216 0  2.028125 0.03707597992059326 0  1.003030137506755 0.3689344961371042 0  1.248258025468107 0.2565907092181813 0  1.203125 0.03661323374043041 0  0.4800125512335631 0.0549472816999725 0  2.072662025974815 0.2975086504196739 0  0.240625 0.3729825336867542 0  1.113252391110535 0.10238286244357 0  1.071052763974265 0.1885202618768825 0  0.8738809401657862 0.3106483608284829 0  0.6786819423003397 0.2677558482644021 0  1.887722846421017 0.1760882698830035 0  1.472640588990488 0.1118278026240017 0  0.5843750000000001 0.41 0  1.865937103925594 0.2604137786483804 0  1.463913572748262 0.2030442564990043 0  1.376426316059077 0.3186741374914345 0  0.1038643885363755 0.2162701735320032 0  0.1769473813227781 0.1070849728467114 0  0.458787839809176 0.171541653775316 0  0.240625 0 0  0.04179569703428024 0.2877217852556549 0  0.1258346557601885 0.2699740073054968 0  1.722140693354707 0.282908100935778 0  0.41206179117512 0.2448172567039922 0  0.3702471778075604 0.2265217604228704 0  0.3714881805374215 0.1786967818665642 0  1.77397096061971 0.2481483237422926 0  2.105123889160691 0.03743885948498647 0  1.001138337938679 0.229719337663998 0  1.051242910646791 0.2854826559431138 0  1.395420985247586 0.18
[...]
<PointData  Scalars="f_43"> 
<DataArray  type="Float64"  Name="f_43"  format="ascii">1.0799358787202361e-01  2.0439029441664677e-01  2.8943045193851352e-11  1.1128020498263173e-10  8.0442211114992751e-02  8.3592427171889680e-02  7.0186814316871057e-02  6.6457011298292290e-02  1.3688701175681767e-01  1.3843093431572726e-01  8.9325708216656086e-02  7.1203281340270333e-02  -4.6516137950929999e-03  -3.4616526851783988e-03  -7.3290608742673938e-03  -1.4306326001315007e-02  3.5380506729065467e-02  -6.3294007836539228e-03  -2.1140831684449485e-02  8.7336376348200115e-02  1.5897761929405715e-01  1.5176315354498673e-01  7.4066103771306804e-02  1.5495955189376479e-02  -1.9605431437853437e-02  -3.3995356927385312e-02  -2.4780110073395169e-02  -1.1088587047553026e-02  -2.6372415196464221e-03  1.1813780155494229e-01  2.7912272701019862e-03  5.7698620053687442e-02  4.7412067888478591e-02  1.0124679868121346e-01  -1.0764937668039081e-03  9.2848459249354837e-02  5.1754015102166450e-04  -3.1775688056316907e-03  3.3796346978846553e-03  6.7127087675464252e-03  7.1409999058807882e-03  1.2954436963202727e-02  1.3887329650386650e-03  3.2926259871754759e-03  3.6525467412274856e-03  6.5175752464363317e-03  5.2147505688734759e-03  1.6102870887326258e-03  -4.1652170716511785e-04  6.1380306075155363e-11  2.6146672175728497e-03  8.0416892815208224e-02  1.6884795122431514e-03  1.7821556744348330e-03  1.4227869543037310e-10  5.5748316791012524e-03  8.9542446369847758e-03  1.1398270173599321e-02  4.8571524514231150e-03  4.5222449850211366e-03  1.6008384545962307e-03  1.0641342197793263e-01  1.1391354016116206e-01  1.0696805481389944e-01  7.9739827091784617e-03  -8.1083243102092364e-04  2.8217799209828672e-03  -3.1884451079778114e-03  2.5212376939585763e-03  6.9171036412268285e-03  1.6207191805936152e-03  9.1410400296150177e-02  9.9495275178324780e-02  6.6348386504196692e-03  1.3164151873041095e-03  1.6250034702047251e-03  9.7629082787126936e-04  3.7006595720289999e-03  1.3347236159548686e-03  4.5831543427315583e-03  1.0877901044645910e-01  1.2859097632312733e-01  1.2838590547836661e-03  7.1877184753211532e-02  2.5162465526526569e-03  2.2859170489558946e-03  5.8604954519916198e-03  2.6472651329703814e-03  3.1523715241389559e-03  5.3869518304408212e-03  3.1323583564877634e-03  2.1944113318461160e-03  -6.7303759422760172e-04  7.8028506555525392e-11  3.0947506962936649e-03  9.6850279824811925e-03  1.2902886857412975e-02  -2.7509922344739804e-03  1.4232249853960413e-03  -4.2290425780996819e-04  3.8384740883282207e-03  2.3492695714666393e-02  5.7843897204091542e-03  7.9406887713658026e-05  4.0638006325247247e-03  1.1332812047628296e-01  9.0278272834728390e-02  1.2860599326963004e-01  1.0514969504646401e-01  1.7959632446633252e-03  8.5016545388533389e-04  -2.9642328785499314e-03  1.0427181341741908e-03  8.5044936241871014e-04  1.2798276956227034e-01  1.7174489356366715e-03  6.8366297592068756e-03  8.6801290193561573e-02  9.5199054064384198e-02  3.4055431385903542e-02  4.3788645633045476e-03  1.2087064705035409e-01  6.3637796734333923e-03  1.0838100822886382e-01  2.8969743415599731e-03  2.1002793304198807e-03  2.5600936975301919e-03  1.0277461173951680e-01  -2.7958613440990480e-03  9.6357746386301069e-02  1.5431913864572095e-03  8.6315154376211643e-04  -2.9539349658995153e-04  9.5080443783148814e-03  1.1706012557840853e-02  8.9002083647395751e-03  -2.3301688953347578e-03  5.9206471229390220e-03  -2.7682399735677998e-03  3.7682754315754990e-03  6.5947584522515626e-03  -2.9032942456742291e-03  1.1696609965131248e-01  2.3664825225981601e-04  -4.8068168258641458e-04  5.9802689712100247e-04  8.5249988127822529e-02  8.8826759746176251e-02  8.7402989100122966e-02  1.0089768532418344e-01  9.0574514711452819e-03  1.0647000517548763e-01  1.7933531421052548e-03  1.0832016199965888e-01  1.0533562823101064e-01  6.1503699488317026e-03  6.6354151248485512e-03  4.5375171180093302e-03  4.0585046546112290e-03  1.3311559844126204e-02  2.4863873095219624e-03  4.6242918592899205e-03  8.8303398657058768e-04  1.8766057588567469e-03  6.8351754265590814e-02  -1.4934988530563775e-03  2.3139962094294165e-03  -1.8647544972933039e-03  5.8127929751999327e-03  2.5059927023083702e-03  2.7022668369355569e-03  -1.4707078452388716e-04  1.5052055431219026e-03  3.5051312379894444e-03  6.5022760467805399e-03  8.7484989967259869e-02  1.0138402835231804e-01  1.2853714714600434e-01  7.9674816442006752e-04  6.5984508911650511e-03  2.3265460132217749e-03  1.4572967210370075e-03  8.8928173925124476e-04  1.7537747491334302e-03  2.3163292238109743e-03  3.1995744055249840e-03  3.6266661445040894e-03  1.6060582023119708e-03  8.1050872976226429e-02  -1.8697521294732961e-03  2.5460952138501611e-03  8.9131861857355624e-02  7.9483909489844982e-03  6.0546045203923376e-03  4.3338625507416319e-03  2.1267603903919862e-03  4.3473379692826313e-03  7.9529827942334558e-03  5.4830160108762678e-04  5.3443011461856201e-03  5.0109055117672279e-03  3.9158536761908771e-03  -2.0356446000424767e-03  1.1805320535092832e-01  1.0614522354615122e-01  3.3858672632147168e-03  -1.4848221521597507e-03  2.4255515919721429e-03  1.0628831896068737e-01  3.7985081770577282e-03  1.4109714700545474e-03  4.5816896467849380e-02  5.8236082961017746e-02  9.2603604593350097e-02  4.4608379249511665e-03  7.0094756688087996e-04  -1.1900127090667285e-10  2.5799630216166627e-03  1.0334129015437846e-01  5.9454139217340234e-03  7.5247271389895315e-02  8.6649550126748756e-02  9.5142308954799231e-03  1.1652069313554296e-02  -5.0522504297082177e-04  5.0428494950674608e-05  -4.1824340852771097e-03  2.3110573562809683e-03  6.3848240813791214e-04  1.7681632530112791e-03  6.6449551018970569e-03  5.9137390125351226e-03  7.2618896820006232e-03  -9.0725403027641866e-04  5.3212320664203245e-03  4.8956432183081388e-03  4.2837121225234947e-04  1.0752286336219040e-01  3.0520801357426259e-03  3.0106596206749565e-03  -2.9006953713528964e-03  5.2106510304164603e-03  3.8091785866915017e-03  1.0783116145243556e-01  -1.8093416352378644e-03  1.2079858784059858e-01  3.2296261060921171e-03  6.1697749007739895e-03  3.0155143214062878e-03  2.7990800732663871e-03  1.2269953880278812e-01  9.2656735831848133e-03  6.0100663171325491e-03  1.1128020498263173e-10  -2.3510666097919996e-03  1.3730556998762308e-01  2.8191994641908300e-03  1.7137124182514986e-02  2.7482700035552456e-03  2.7729651970674588e-03  1.1221074218467758e-01  6.1380306075155363e-11  2.8943045193851352e-11  1.2383700779611914e-01  4.6523267645503224e-03  4.3155939870186955e-03  6.2822563048854077e-04  9.3333476931863335e-03  1.3235801580324717e-02  1.1876409254723625e-02  -2.4441363444606869e-03  4.4552174515188718e-03  1.5462794613425228e-03  9.3414033594692509e-04  7.7890503597879534e-03  2.3586843653268779e-03  1.4331107902062728e-03  1.9085042689752872e-03  1.2277107257975450e-05  2.1006267225533049e-03  2.4633727640606885e-03  1.8302291575686728e-03  -1.9487636849361108e-04  1.0954936074391097e-01  1.6384175117359341e-03  9.5958585201451105e-02  -3.4444096502623785e-03  -1.6435551074283710e-03  1.9928878800574866e-03  -1.0672813261057316e-02  3.8751975113128887e-03  1.1474687269591494e-02  3.4942516238410153e-02  4.3648099071060256e-03  6.1754260793158147e-03  1.0800103994707073e-03  1.2375625613342410e-01  1.0728985309960380e-01  1.1623726476657051e-01  1.0235155237332579e-01  1.1002261181595190e-01  1.0627266771453445e-01  6.2763155989205626e-03  9.1759558012176348e-02  9.1845210448983000e-02  9.2870120760679520e-02  5.5562455349564884e-03  1.1705130504688621e-03  1.0419052309796164e-03  1.5143697636894932e-03  6.6156944591321950e-03  2.2395905504673489e-03  8.2853626080633028e-02  7.7758609947511199e-03  1.2745939621215055e-01  1.3227699857180114e-01  1.9660252891497815e-03  1.4910541676011874e-03  9.2935824384248578e-02  5.1950156246416282e-03  2.6951810677802060e-03  8.9333405524040538e-02  8.4574090717345854e-02  8.5909149743559440e-02  4.7873266498321205e-04  1.3308444734920243e-03  1.6119537481965296e-03  1.4806113056621715e-03  9.0539216510198165e-05  6.5599861634638565e-03  9.9532507200514944e-03  4.8441440918445952e-03  3.9105122498215239e-02  1.4096058174421422e-01  1.0789061241907182e-01  2.5158622261619201e-03  2.5354944581201288e-03  -5.3912230586750933e-04  8.9599251599379676e-02  9.1503311721495159e-02  -2.9410529893013067e-03  1.2539980147083043e-02  6.9532445154851822e-03  5.4626210409662399e-03  -1.6596316575000424e-03  6.4114139740173316e-03  6.0200964454302985e-03  5.0354685747229738e-04  5.2159168963973124e-04  1.3064366988284981e-01  1.3343617951978298e-01  1.0801836246137636e-01  1.1377376049520713e-01  -6.3825215492174109e-04  -2.2848736070172571e-04  6.7433752608566759e-03  4.7456168392487142e-03  3.9588885076509654e-03  8.9162361174431132e-02  8.1906219047985784e-02  1.0128951295642365e-01  1.0205980050666915e-02  3.3524052472701962e-03  2.2979678337182157e-03  1.3773918341092656e-01  4.3466141162015130e-04  5.1084816685399532e-03  6.1802254701231237e-03  6.6314481009058495e-03  1.0960259113787761e-01  1.7864284026380517e-03  9.7138912579166375e-02  8.7199948755230114e-02  6.8414436279952790e-03  2.9462530992181778e-03  8.9858286259123926e-02  1.3274053619317897e-03  1.2726267697387455e-02  2.3550966873472144e-03  1.0308321562702275e-01  6.4207698396619665e-03  -7.6190859783881702e-04  1.0812614103860370e-01  1.0159959097364599e-01  7.8112376595457958e-02  -5.0885413020678610e-04  -1.7215177734932743e-04  -1.0207521934266063e-03  -3.7966090353826073e-03  4.9106762941265056e-04  1.2811085746694567e-01  1.7647891364052416e-03  8.0276515731780990e-02  9.6458126380131071e-02  5.4490084480210711e-05  -4.1657639574691182e-03  2.5590141325385800e-03  5.3838772131958493e-02  4.1364883987170713e-03  9.6806049145348128e-02  4.0493342494981027e-03  3.6755771658119169e-03  3.2671430961412696e-03  8.7232043132565121e-02  1.0858197890933143e-02  1.7344081500034547e-04  5.9166692254066042e-03  -1.5142287830155064e-03  -2.4239550414396995e-03  6.8572364672381701e-03  6.9985877678198326e-03  8.5973464568016800e-02  1.1541930984791104e-01  2.1216938247195986e-03  9.9827351351152189e-03  8.8000713729669236e-02  1.9623056054916968e-03  1.2445232794906684e-01  4.9847402359767890e-03  -1.2563928611950168e-03  -3.0772964661452021e-03  2.3700290913053458e-02  8.0733110971828760e-03  -1.0499384244078321e-02  2.0517803668646138e-03  2.2563283837781179e-03  4.8587531890514225e-03  1.0820565981349801e-01  1.6749876905108436e-03  1.2167396016943674e-03  2.0297884123953742e-03  1.6274033660327773e-04  1.0884900170323375e-02  -2.3950024965526309e-03  -1.0011778018643443e-03  -1.8014788301520673e-03  -7.1474252932528492e-05  5.7020841112160074e-03  1.7351794551689450e-03  5.6684560971336532e-03  3.6547957279769588e-03  1.0516321459675151e-02  1.1848579112519379e-02  6.3558634450402492e-03  6.6065702256591892e-03  2.7967117358525051e-03  8.3729482344470155e-02  -4.0563729891994818e-04  -2.9712525307999589e-03  6.4081832626785139e-03  6.6851052091919886e-03  8.0632012160458796e-04  3.4442658183768914e-04  6.5433520136146889e-03  7.3215701026694028e-03  4.8239950102019818e-03  8.0913641113443666e-02  8.3871572585839368e-02  2.1645387841193451e-03  4.4483341559532095e-03  8.8111688810782934e-02  1.7437462836850928e-03  2.1991381199685913e-03  7.2015411263276572e-03  1.1692611548907055e-03  2.5394083357078517e-03  -1.5286558962891849e-03  1.0497764912246888e-03  4.6345439949893434e-04  5.7625739480997905e-03  1.0343875021971779e-02  -3.2505889509947423e-04  -7.6030632365462977e-04  6.3905141659419368e-04  -2.4690904671522470e-04  1.3263423741486255e-01  1.0910989459602169e-01  1.2917225929087459e-02  3.3486267868664201e-03  1.0362545371000083e-01  -4.1125412405055061e-03  4.3882015518722161e-04  9.9480296336177266e-04  3.0727132113112557e-03  1.1783527851519922e-03  -1.3168391365950746e-03  4.1184192268398688e-03  4.9052384386834430e-03  -1.6790005497942209e-03  1.8648309953101674e-03  -7.0768211170651697e-03  2.0945678428080424e-02  -4.0856068586208835e-04  2.1999266077722380e-03  1.1672520621916302e-03  3.3021278619608180e-03  2.9063591348293884e-03  1.9458990915800487e-03  1.4205347231991483e-03  1.3747877596736243e-03  3.0617388824702571e-03  9.4368973822752361e-02  1.0384104990595833e-01  7.2733520503167779e-03  9.7753345570354201e-04  2.7805388508102364e-03  4.2553087267739147e-03  -2.7961766995557797e-03  2.2959680963717507e-03  1.8165030974620546e-03  1.2102485532175962e-03  6.6147835538698189e-03  2.5865986204381586e-03  2.1442521633816144e-03  -1.6969672781737156e-03  3.1131852465159709e-03  2.1445263318885452e-03  3.1953374004886725e-03  1.0006581462140661e-01  1.0613404938227067e-01  -1.6597015489239943e-03  1.1422101558738485e-02  4.2769296161320798e-04  1.2692507902131805e-03  4.0183629109788021e-03  -2.5144873807412182e-03  1.3600833470788887e-02  3.4650793300920100e-03  6.0092631621611881e-03  2.5934337409363097e-03  5.3020152985024860e-03  1.2091408650255486e-03  1.7452969865201665e-03  4.4227754837533660e-04  1.0751905428880149e-01  7.5567598539042144e-02  1.0458985669695894e-01  9.6726254718370985e-02  1.1787709792313562e-01  1.0820065005281322e-01  1.0461121451586551e-01  1.0818030789338641e-01  5.8951492552527509e-04  8.6891206977444263e-04  5.9078632838504314e-02  1.4215192039671224e-02  2.4655267907569061e-03  2.0978737869055373e-04  1.9682467113402262e-03  8.0249399831483579e-03  2.9027344307536317e-03  5.8622713919013513e-03  -1.2880102538235971e-03  2.1009009490368246e-03  3.1719573752840313e-03  -4.8152329794916060e-04  6.3447610413207870e-03  9.1096013914962262e-02  7.1331709486662828e-02  4.9616319083003922e-02  -2.8798579594018462e-03  2.3286048475901640e-03  1.2521916086383875e-01  1.1501649192864179e-02  -4.0235243422757846e-03  1.4505784193425894e-03  2.8513740114444162e-02  9.0130915859160804e-02  2.6316193662983124e-03  2.1098698920358604e-03  8.1769809494141962e-02  3.5168608525168485e-03  4.9877638907516852e-03  3.4750737405808449e-03  3.4837209045155580e-03  1.9082256699369604e-03  1.9880101987737944e-03  6.4119236297378365e-03  4.0825845225991760e-03  8.5183634837643373e-04  6.2087258260246012e-03  4.4218573131401548e-03  6.6328768440971578e-03  3.3856626762982980e-03  3.6104542422088371e-03  3.8233921717990204e-03  8.6137716035797045e-03  1.7001141398903976e-03  1.3963421958267839e-03  1.0090522420651243e-01  6.7653778502161199e-02  1.9221512406209038e-03  -8.4672595345092682e-04  6.5307830802422426e-03  3.0510649894103358e-03  3.4730704261580723e-03  3.5146291409602621e-03  1.4687806985139299e-03  -2.8354372171216090e-03  2.0702499306036368e-03  5.3387254118066147e-03  1.0252051482972722e-01  4.9236466239496977e-03  6.5371290972875973e-03  4.6070890403927152e-03  2.8926627432782322e-03  1.0720613570408750e-01  4.0281748021978221e-04  -2.4905087254670848e-06  8.6185664970027318e-03  8.4428057922897218e-02  -2.1635093102073961e-02  8.9385026228366825e-03  7.3334458770292566e-03  3.8945206938671563e-03  1.2766976844835906e-01  5.6885850937111876e-03  -2.2685204233789868e-03  6.2364283926661683e-03  2.6340522505638652e-03  1.0666917387655769e-01  1.1331140700450865e-01  7.7019508504191222e-03  9.5694913204987103e-03  1.3208531113565936e-01  1.0770535408791357e-01  4.3798936722859944e-03  2.1603099622800135e-03  3.4204175411000309e-03  -1.6754691365160478e-03  2.6880115019320308e-03  9.7026838526380176e-03  4.9988413961814353e-03  3.3669064878565471e-03  5.9459199056586922e-03  1.1276369175828771e-01  9.9777533193618498e-02  -3.6732084955742291e-03  1.2259380697151759e-03  2.1826618027911719e-03  -1.2804514616870767e-03  6.6633734184625183e-03  1.2389381657870754e-02  1.0019590208116302e-02  5.3944717034493210e-03  4.8220188098760620e-03  1.3453415278720249e-03  1.1910272302000278e-02  2.9680440862716886e-03  1.5775504397070564e-01  1.0790312480726169e-01  8.9794644743014171e-03  3.6118460687669762e-03  -5.1140405869353105e-03  1.0134958625118515e-01  2.3123363038144518e-03  5.2833605175272224e-03  1.0950295193490527e-01  8.3520136606160547e-02  2.6929454498947295e-03  1.0989970043313897e-01  8.8834305174952305e-02  1.5223393141218903e-03  -8.7235921423066791e-03  1.5974938528283605e-02  5.0515997985708300e-02  2.4375825241496197e-03  4.8645428078151892e-03  7.4486245293832031e-04  1.2374741300353819e-03  1.2053498547954007e-01  4.3911233402367991e-03  5.0083983161652368e-04  7.3973154043218527e-03  4.2420190662805285e-03  6.1380306075155363e-11  9.0178697922699780e-02  2.3575267274730367e-03  2.7052539011981078e-03  -1.3990483352364026e-03  2.1055302792082429e-03  6.7196681799707942e-03  1.0958145506827462e-01  1.2474424042262508e-01  4.4053885369499168e-04  1.7392617926058505e-03  8.5857807863434443e-02  9.9474940159049036e-02  1.2190837826435656e-01  3.9439792509072978e-03  4.3099099543594237e-03  4.1867730276591965e-03  2.9429688064065182e-03  5.2075336621080553e-03  1.3209142803904885e-02  4.4115248532863582e-03  1.6045959649815713e-03  1.1366479840627855e-01  1.4761714091093424e-03  2.3868773784517898e-03  2.3559574849933607e-03  4.6647116734315347e-02  9.0410273903208369e-02  8.2270021908283614e-02  4.0924983487664332e-03  1.1211643698909786e-01  1.4660272106023104e-02  6.3042879096098731e-03  -4.8245225526192459e-03  -7.7581443949817645e-04  -3.0059947597749388e-04  -2.3067454010610297e-03  7.8028506555525392e-11  1.3388992075010889e-01  8.7690606751017683e-02  2.6485788822269698e-03  2.2523256904610762e-03  2.1693761639581229e-03  2.2647875283622332e-03  5.6540017321096651e-03  1.0236856513225695e-01  9.2884243402963501e-02  1.6171873494962352e-02  3.2217860410264495e-03  6.4001280624065099e-02  -1.1850035808048476e-03  2.5146883914439261e-03  9.7101385864110986e-03  6.7024742888674499e-03  3.0883071011096830e-02  7.4885265709211330e-03  4.5186541100715122e-03  5.7837766474419907e-03  8.1130024482478917e-04  8.8777737737670375e-04  3.7045057191747852e-04  8.0144067659314755e-02  5.3111203046457625e-02  4.2124140641070064e-03  2.7812138064928276e-03  -5.7662454842705053e-03  1.3406698220023707e-03  7.6568522096185079e-03  5.5720812450926428e-03  5.0352774478954468e-03  1.1648886616092065e-01  8.3440402409259273e-03  -3.9119113812284053e-03  -3.9130590442436703e-03  1.0797843808609378e-01  4.9748169405880137e-03  8.3627790703614646e-02  -2.6364115108102790e-03  1.0299113014232199e-01  3.3141052795316039e-03  5.3042470240061666e-03  1.4672349318524405e-03  8.9270417658982845e-02  -7.3528343067249331e-04  -8.9973882899574203e-04  6.1380306075155363e-11  2.4987281170170540e-03  2.1366635850822860e-03  5.9566790761971288e-03  6.3975826794640716e-03  9.0217613267738667e-02  8.7877070174068553e-02  3.3864582328880489e-03  -1.7192754552936899e-04  3.1846211041044684e-03  1.3996334183548128e-03  5.9158925294476210e-03  5.8906960478090856e-03  6.4818873899990777e-03  7.3940597046215070e-02  1.3302421731374407e-03  -1.7113876149578125e-03  -1.8020882211543835e-03  7.2866185873587596e-03  3.1401939558386035e-03  2.1936889164422581e-03  2.5382860461122684e-03  4.8278050108609494e-03  5.6720985061960126e-03  3.3178760349373421e-03  3.1719791638425807e-03  1.0027847814264734e-01  1.1015525469077043e-01  6.2707425836994405e-03  1.1701981637086646e-01  1.0613137687402781e-01  5.3011330641756643e-03  1.1140213341490205e-03  -2.2610534964891531e-04  -5.0215485067333992e-04  3.0906087413473666e-03  7.7584929405434923e-04  1.5895212688896519e-03  7.7650438881520539e-02  3.9419889666735802e-03  2.7851654452908541e-03  -2.1013020338336639e-03  8.1283392334727769e-02  -1.0666854884268755e-03  6.4316588579780808e-03  -1.8236741454954000e-03  1.1952115624356013e-01  1.0847138677752689e-01  6.3608529825357465e-03  2.4810172202703830e-03  8.5795516732048785e-03  8.4381098315736459e-03  1.2637444600641475e-02  1.0783851534836027e-01  5.5532163638517531e-03  9.2820283549357341e-02  5.1432836384423765e-03  6.9774441949001273e-02  8.4376101734250260e-04  4.8610441507616359e-03  6.5377847700710482e-03  1.0702691608404059e-01  1.8688452103466588e-03  2.8476537002400256e-03  2.6629724428696828e-03  3.