<?xml version="1.0"?>
<VTKFile type="UnstructuredGrid"  version="0.1"  >
<UnstructuredGrid>
<Piece  NumberOfPoints="1404" NumberOfCells="2604">
<Points>
<DataArray  type="Float64"  NumberOfComponents="3"  format="ascii">0 0.41 0  0 0 0  2.2 0 0  2.2 0.41 0  0.2353553390593274 0.2353553390593274 0  0.25 0.2 0  0.2353553390593274 0.1646446609406726 0  0.2 0.15 0  0.1646446609406726 0.1646446609406726 0  0.15 0.2 0  0.1646446609406726 0.2353553390593274 0  0.2 0.25 0  0.6923879532511287 0.188268343236509 0  0.7 0.15 0  0.6923879532511287 0.1117316567634909 0  0.6707106781186547 0.07928932188134523 0  0.6382683432365089 0.05761204674887133 0  0.6 0.04999999999999999 0  0.5617316567634909 0.05761204674887134 0  0.5292893218813453 0.07928932188134524 0  0.5076120467488713 0.111731656763491 0  0.5 0.15 0  0.5076120467488713 0.188268343236509 0  0.5292893218813453 0.2207106781186547 0  0.561731656763491 0.2423879532511287 0  0.6 0.25 0  0.6382683432365089 0.2423879532511287 0  0.6707106781186547 0.2207106781186547 0  1.1 0 0  0 0.205 0  1.1 0.41 0  0.55 0 0  0.55 0.41 0  0.275 0 0  0.8250000000000001 0 0  0.275 0.41 0  0.8250000000000001 0.41 0  0.6875 0 0  0.61875 0 0  1.65 0.41 0  1.65 0 0  1.375 0 0  1.375 0.41 0  1.925 0 0  1.925 0.41 0  1.5125 0.205 0  1.7875 0.205 0  0.9625000000000001 0.205 0  1.2375 0.205 0  2.2 0.205 0  1.99375 0.2152743902439024 0  0.4125 0.41 0  2.0625 0 0  2.0625 0.41 0  2.2 0.3075 0  1.7875 0.41 0  1.375 0.1486128048780488 0  1.5125 0 0  1.7875 0 0  1.5125 0.41 0  0.9625000000000001 0.41 0  0.4125 0 0  0.1375 0 0  0.1375 0.41 0  0.6875 0.41 0  0.9625000000000001 0 0  1.2375 0 0  1.1 0.1486128048780488 0  1.2375 0.41 0  1.65 0.1486128048780487 0  0.823495464168302 0.2603780552348366 0  0.3738707794507017 0.2720196349488618 0  0.3662291281331582 0.1311456406657909 0  1.676715909090909 0.2793064024390244 0  1.126715909090909 0.2793064024390244 0  1.348284090909091 0.2793064024390244 0  0.8287581077665108 0.1302150898054257 0  1.894702181800738 0.1282910975492754 0  2.092797818199262 0.1282910975492754 0  1.85625 0.3075 0  0 0.3075 0  0 0.1025 0  2.099172119769978 0.25625 0  0.4752414543992246 0.3180372603390748 0  1.99375 0.08395950269330846 0  1.459960956013612 0.3075 0  1.569025960719943 0.2986889805672169 0  1.03125 0.3278689922742084 0  1.959375 0.3126371951219512 0  1.749222215368287 0.1025 0  1.275777784631713 0.1025 0  0.9228016959331474 0.3075 0  1.000777784631713 0.1025 0  2.2 0.1025 0  1.225938124459196 0.3075 0  1.550777784631713 0.1025 0  1.44375 0.07430640243902442 0  1.16875 0.07430640243902439 0  0.7562500000000001 0.3358727844323386 0  0.89375 0 0  1.899250267340833 0.2229966846119207 0  0.61875 0.41 0  1.766482954545455 0.2934032012195123 0  1.046078563095834 0.2389031808701145 0  1.421109702350723 0.2261157654379721 0  0.07567171807980319 0.25625 0  0.2511897295290552 0.3235829392832554 0  0.07655002503762308 0.1488653460959645 0  0.1377245246847496 0.3206030474919778 0  0.6694099692696568 0.3242771941727899 0  0.9168971191497528 0.1295727156104653 0  0.7562500000000001 0 0  2.118919042110979 0.3422084711244843 0  2.13125 0 0  0.06875000000000001 0 0  1.30625 0.41 0  1.597888256393107 0.2173787389261347 0  0.34375 0.41 0  0.2493272016354703 0.08091360081773515 0  0.5588896233436766 0.3264056208677571 0  1.829299675393195 0.07400700849299596 0  0.1334079128307869 0.08523463035786674 0  1.71875 0.41 0  0.06875000000000001 0.41 0  1.16875 0.41 0  2.038220665644273 0.332420740103091 0  0.8810647413215221 0.2027360103977071 0  0.34375 0 0  0.7453891198966415 0.2471459041008237 0  0.42112093004955 0.1988123139090554 0  0.8314023090855964 0.3351170841770613 0  0.89375 0.41 0  0.7906250000000001 0.06615386481594063 0  1.452769549894695 0.1548122580621249 0  1.369219062229598 0.07430640243902442 0  1.30625 0 0  1.07420695807087 0.07430640243902439 0  1.720943423819132 0.1714577452753128 0  1.157188124459196 0.205 0  1.304056576180868 0.1714577452753128 0  1.67579304192913 0.07430640243902437 0  1.209670467133757 0.136210026696477 0  0.4312800784902823 0.08036147352247747 0  0.8723959680194693 0.07066860609690805 0  1.025335513626278 0.1700681449722324 0  0.7945632284247136 0.1940204203251442 0  0.378125 0.3452261501101892 0  0.3307109909790086 0.2037165635083759 0  0.3009701032039409 0.2702970083403109 0  0.20625 0.41 0  1.58125 0 0  0.4812500000000001 0 0  0.9838963872396855 0.2722244191167347 0  0.06772484939107212 0.3260067317374387 0  0.20625 0 0  1.58125 0.41 0  1.631724228912893 0.3381867502687533 0  1.825608881788174 0.14499488549201 0  1.85625 0 0  1.44375 0 0  1.44375 0.41 0  1.85625 0.41 0  2.13125 0.41 0  0.7562500000000001 0.41 0  0.4812500000000001 0.41 0  1.16875 0 0  1.03125 0.41 0  1.03125 0 0  1.71875 0 0  1.99375 0 0  1.99375 0.41 0  0.9408708167433545 0.0651989315768642 0  1.340625 0.3489494290853124 0  1.134375 0.3489494290853123 0  1.700180620188976 0.3438659752031281 0  0.29668452290037 0.1318471691375986 0  0.3175441051360096 0.06496934809856265 0  0.06509151636162461 0.08140814015999148 0  2.135782184673599 0.07126652247502523 0  1.668441847249787 0.2129203728327609 0  1.295782514339747 0.2378437748815763 0  1.409375 0.3520314716057996 0  2.129248544730567 0.1906135162504124 0  2.060771381434487 0.1989445750470348 0  2.013252586573865 0.1496169464686054 0  1.942766402200229 0.1734448904596831 0  1.895522487186454 0.06076163953489683 0  2.069553871656643 0.06605731020975725 0  0.4670911801404742 0.2498408582391372 0  0.7622743084658112 0.1264100838268133 0  1.274680914880868 0.3520219391081363 0  0.3148669572599245 0.3331753056385887 0  1.614713220494657 0.09473434380863296 0  1.72990325744076 0.2380068107952482 0  1.356580098625191 0.2120393231351682 0  2.034370752044885 0.2668681600792073 0  1.51768709249349 0.3426260931494756 0  1.561883724969884 0.1650446847858835 0  1.197344062229598 0.2523725417393646 0  1.804085235518364 0.3468178408964637 0  1.817887819205233 0.2589243285818559 0  1.905897727272727 0.3485060975609756 0  0.7296439733931823 0.06337466644369745 0  0.4250935971865949 0.1394919578475796 0  0.3773030136511669 0.05130372097998036 0  1.192836486056382 0.3562350748565544 0  1.1029124365364 0.226143510831178 0  1.28257088594801 0.2944411014911587 0  0.1905185804731426 0.06029880676029167 0  1.474860187679412 0.2504218616229368 0  1.406767003493824 0.2829282258560709 0  0.5209826960981064 0.2830664557824064 0  0.5131119502780163 0.3617405848213254 0  0.1948220106098172 0.3081993407644811 0  1.845656689180403 0.1998310418452388 0  2.144958525570388 0.2909790873294231 0  2.2 0.15375 0  0.8833025251326762 0.2625402923007629 0  0.171875 0.3653875762360952 0  1.57794966442982 0.3540357145964566 0  0.446875 0.366068291212731 0  0.4272051715206439 0.2891929346190664 0  1.508991196088596 0.1421783375065625 0  1.50436820029908 0.06143401634903343 0  1.223857000523521 0.08235548624535324 0  0.6137904613287555 0.3066826366281556 0  1.153316824384777 0.1289850171317838 0  0.9751573703656133 0.327632618473408 0  2.148922302309752 0.1258841779285271 0  0.9281250000000001 0.3643758685795699 0  1.621993280276081 0.2841214267927899 0  1.550118654119087 0.2461998729100966 0  1.327182649291491 0.1216967252533594 0  0.9939955742738924 0.04663549843168518 0  1.753125 0.04556020050186112 0  1.271875 0.04556020050186116 0  0.9734326767716519 0.1506854560854393 0  0.103125 0.3675775577080512 0  1.94956388244759 0.1180512551534177 0  1.949997712993411 0.04965831614304109 0  0.717433898748555 0.295596016333797 0  1.771961817615021 0.1530278789497521 0  1.909246823951428 0.2812757146784527 0  0 0.35875 0  1.050632804931928 0.1226269704412814 0  0.05695108326502596 0.2024009637347154 0  1.948575539857022 0.2445328248721197 0  1.697271520964565 0.1233917627620729 0  1.065625 0.3689344961371042 0  1.085849084308977 0.3170853572226867 0  0.1015495998772944 0.04226029099983852 0  1.577403511714593 0.05463601888079143 0  1.751571320346033 0.3651102912045228 0  2.2 0.35875 0  0.7441773632462837 0.1786786606458751 0  0 0.05125 0  1.466879772203159 0.3611261772912453 0  0.6282230348858767 0.3577675483994025 0  1.990280163552011 0.3564754268533217 0  1.17471064520912 0.2990917256188288 0  0 0.25625 0  2.2 0.25625 0  2.2 0.05125 0  0 0.15375 0  1.853978576207987 0.35875 0  1.515638456102889 0.2882700110184686 0  2.150453692751374 0.2387066338105111 0  1.323782677156475 0.04897634338873398 0  1.409375 0.03715320121951221 0  1.406484531114799 0.1087852750766809 0  1.134375 0.03715320121951219 0  0.721875 0.3729363922161693 0  0.7941695928236929 0.3696489254637395 0  0.7934827162619036 0.3013409431456604 0  1.627401732573545 0.04552157221025036 0  0.9352049974617431 0.2507047965699472 0  0.8763260682738339 0.3611103317460093 0  2.045405893604797 0.1105340662939892 0  1.255408269734577 0.1577307500159216 0  2.028125 0.03707597992059326 0  1.003030137506755 0.3689344961371042 0  1.248258025468107 0.2565907092181813 0  1.203125 0.03661323374043041 0  0.4800125512335631 0.0549472816999725 0  2.072662025974815 0.2975086504196739 0  0.240625 0.3729825336867542 0  1.113252391110535 0.10238286244357 0  1.071052763974265 0.1885202618768825 0  0.8738809401657862 0.3106483608284829 0  0.6786819423003397 0.2677558482644021 0  1.887722846421017 0.1760882698830035 0  1.472640588990488 0.1118278026240017 0  0.5843750000000001 0.41 0  1.865937103925594 0.2604137786483804 0  1.463913572748262 0.2030442564990043 0  1.376426316059077 0.3186741374914345 0  0.1038643885363755 0.2162701735320032 0  0.1769473813227781 0.1070849728467114 0  0.458787839809176 0.171541653775316 0  0.240625 0 0  0.04179569703428024 0.2877217852556549 0  0.1258346557601885 0.2699740073054968 0  1.722140693354707 0.282908100935778 0  0.41206179117512 0.2448172567039922 0  0.3702471778075604 0.2265217604228704 0  0.3714881805374215 0.1786967818665642 0  1.77397096061971 0.2481483237422926 0  2.105123889160691 0.03743885948498647 0  1.001138337938679 0.229719337663998 0  1.051242910646791 0.2854826559431138 0  1.395420985247586 0.18
[...]
<PointData  Scalars="f_43"> 
<DataArray  type="Float64"  Name="f_43"  format="ascii">1.0771469765283632e-01  2.0434717116902251e-01  1.1361920616966352e-10  4.0542514272221022e-10  7.9901843516325552e-02  8.3468538905491316e-02  7.0146742867476408e-02  6.6452909526925147e-02  1.3691859785920915e-01  1.3820515603238329e-01  8.8924153614310830e-02  7.0609881969430466e-02  -5.5704930067037887e-03  -5.9435681333444039e-03  -1.0127625658324936e-02  -1.6337987577107638e-02  3.2770820896094684e-02  -4.9423817311117380e-03  -1.8171782867422662e-02  8.6774181088684510e-02  1.5735714649279420e-01  1.5285524410078585e-01  7.4819387605943727e-02  1.3074037939203574e-02  -2.2477383688358703e-02  -3.5339540031870904e-02  -2.4983524053487485e-02  -1.1348284376130734e-02  1.2428677498535292e-02  1.1791718978863609e-01  2.7543271286524311e-03  5.7716750519982804e-02  4.7924687812289091e-02  1.0158050790979291e-01  -3.2207791113145322e-03  9.2421979839898458e-02  2.1313299443965848e-03  -4.5522125784633145e-03  3.3009014356518264e-03  7.2213064550555733e-03  7.2368348604246666e-03  1.1956322419663918e-02  9.7082832142463982e-03  3.6067559973360776e-03  3.6221968782893413e-03  9.0241885455437081e-03  5.4207422292135571e-03  -7.3866155837585407e-03  1.1949655551228979e-02  2.0569547741594355e-10  2.7108983191188804e-03  8.0391980034448488e-02  1.8028919977492056e-03  1.8088581461398856e-03  3.5583729076320275e-10  5.4317158459624929e-03  1.1326892797909945e-02  9.2529172157344002e-03  5.4102747062242107e-03  8.8355143710886000e-03  2.3564722984427667e-03  1.0646204035623631e-01  1.1398124391489073e-01  1.0660994036363752e-01  9.0855477860207132e-03  -5.0087079137007857e-04  1.5440026237439701e-02  9.4437306119739672e-03  7.7899486756667765e-03  7.2380571940986868e-03  -8.1409070058475086e-04  9.1052932109562099e-02  9.9678169626670921e-02  6.8761801427718212e-03  4.8371267765023821e-03  1.0127303840776052e-02  -2.8830558748154699e-03  4.0051238062745144e-03  1.4079860754965027e-03  4.5226245873687581e-03  1.0849493035693585e-01  1.2848151553571457e-01  1.3237241631680640e-03  7.2051930557169727e-02  2.7063471932016105e-03  9.3884874000311497e-03  8.2282246342913860e-03  2.7446049240536759e-03  3.1660117957676226e-03  5.9164208716352010e-03  1.4134557259057892e-02  1.1529242769472033e-03  -1.3058914792657707e-03  2.6950424784852645e-10  7.7818815554157785e-03  8.6291259296154450e-03  1.0425724913944206e-02  1.5435789269632327e-02  2.2231448270870627e-03  -2.9532171790581899e-03  3.9529397253251306e-03  2.4379074840613420e-02  5.7035440300519762e-03  1.9637601796463288e-03  1.0047689910879584e-02  1.1306766372938991e-01  8.9877343918172051e-02  1.2848178351524792e-01  1.0484378442205118e-01  2.0593168172817113e-03  -5.7457493576873733e-03  -4.4793505536307645e-03  1.0661056312023457e-03  8.9776807590728465e-04  1.2796679998954530e-01  9.3194523745540863e-03  7.9043342775456122e-03  8.6576462954573608e-02  9.5429651034248761e-02  3.4481174318609892e-02  4.8630040676098203e-03  1.2088941481498457e-01  6.3349034883395374e-03  1.0810881573425468e-01  5.0850866818466841e-03  2.1299248757697276e-03  -4.4611802191732676e-03  1.0311274413569464e-01  -2.6220864620257996e-03  9.6478309695981243e-02  2.3361529973312967e-03  2.2672065049105959e-03  -2.2676709080287614e-03  1.0010327925272929e-02  1.2014870726283105e-02  1.3740243477154215e-02  8.7576887523594191e-03  6.2943285698497066e-03  1.1154144471662049e-02  1.2194331161669297e-02  6.8922126914337835e-03  1.4724418723710017e-02  1.1670230907759536e-01  -2.9181753320974869e-03  -2.2566183668720546e-03  -1.0579835976223899e-03  8.5073173639373278e-02  8.8890716165070396e-02  8.6961369117447812e-02  1.0042293106384506e-01  8.2042618560101959e-03  1.0608822903900804e-01  -6.1270016780549355e-04  1.0804361852461793e-01  1.0553572530463093e-01  8.0652385772152866e-03  7.4494456439712104e-03  4.9147383258579614e-03  4.5057391522520408e-03  1.0472368133765600e-02  9.4443322252790746e-03  4.5252309437158987e-03  9.0152100612964656e-04  3.2774858193782199e-03  6.8477268380225748e-02  1.5681428320500620e-02  2.1922506971111897e-03  5.6970275939008880e-03  6.3149195548495712e-03  2.7044010257929016e-03  2.7145169656423549e-03  -2.6213238284204326e-03  9.6750858609922254e-03  3.4411854132778254e-03  6.5736137828864864e-03  8.7629511463737458e-02  1.0178443569868420e-01  1.2847156325738052e-01  8.4245441815359559e-04  6.9858427852542157e-03  1.0757329839057287e-02  9.6475379264678428e-03  9.2783763340249835e-04  1.8273989939183294e-03  2.4505546150203747e-03  3.3761287414455429e-03  3.9911622099417640e-03  1.7114866437250688e-03  8.0686073733392580e-02  -4.5128098309138590e-03  8.7793674081137491e-03  8.8794074530468961e-02  7.7238846280343471e-03  6.1802706151618848e-03  1.0835723084905350e-02  2.1784843577371954e-03  8.7865218363158224e-03  8.4214217581448907e-03  8.9864738488888412e-03  5.2131785652437422e-03  5.0236358260175732e-03  3.8724026197208155e-03  -4.0062405529172921e-03  1.1839133573382153e-01  1.0642537773893111e-01  5.8784172584915011e-03  6.9749855701187417e-03  9.5206848090073782e-03  1.0643873503494616e-01  9.3743454291325256e-03  9.8716809323249333e-03  4.5366303945443220e-02  5.8550162309115354e-02  9.2213124734955118e-02  4.6544123520511514e-03  7.2197283413509344e-04  -2.2472560780471435e-10  -2.8022496701100809e-03  1.0295032419115863e-01  8.1039680772392562e-03  7.5302895668042463e-02  8.6429567198198623e-02  9.1988334672121301e-03  9.3793478726696879e-03  1.5464879969692936e-02  -2.4060295246159795e-04  1.4222916064733864e-02  2.8366072964275128e-03  6.7076446834270003e-04  3.2631707076690823e-03  7.5761194837312322e-03  8.4929755756415065e-03  1.2607829775897752e-02  1.1072666146864987e-03  5.8631592206243597e-03  1.4627326788012658e-02  -6.7524073049930536e-03  1.0723076044431885e-01  3.2854949879428373e-03  3.2783577367787478e-03  -3.0178536148912530e-03  5.6214938150398021e-03  3.8236809720799932e-03  1.0754394321335317e-01  3.5907711418309597e-03  1.2059035939798515e-01  3.3043217101314773e-03  6.6036533810993440e-03  2.4863903545877860e-03  2.6309854804543679e-03  1.2271055329622764e-01  8.2626816637308993e-03  5.9036131303359923e-03  4.0542514272221022e-10  -3.7293086047327489e-03  1.3724013882156419e-01  9.2587345342898721e-03  1.7865405158602223e-02  2.7603665155247949e-03  5.7885207330602732e-03  1.1194678338830998e-01  2.0569547741594355e-10  1.1361920616966352e-10  1.2367273912116390e-01  4.5555465216392671e-03  8.8534562097440424e-03  6.5097109057850972e-04  1.3248389263454587e-02  1.1186461182821794e-02  1.1033095338612535e-02  1.4270372103016703e-02  5.7043127058717677e-03  3.2227572450644550e-03  3.5827053508642661e-04  7.5546804394138432e-03  -4.5503382974642183e-03  3.1907902146660551e-03  2.0287767314750055e-03  1.3417655811105555e-02  2.2567604520186994e-03  2.8327407162681206e-03  9.8835028950279239e-03  1.5759649439860295e-02  1.0894347477651084e-01  1.6756505229377952e-03  9.5509424640461582e-02  1.2173531401412530e-02  4.6270137799790875e-03  9.5119816225061127e-04  -1.0962837429785774e-02  4.0999413072670939e-03  9.8309297258901626e-03  3.5675051945708858e-02  4.3924120041566872e-03  9.6584154448901040e-03  9.8459512377188588e-03  1.2352710685697120e-01  1.0736270161192026e-01  1.1705109339810879e-01  1.0262445356082521e-01  1.0974674714723816e-01  1.0596829293826485e-01  6.2840456515301808e-03  9.1462964410780875e-02  9.1669132281471041e-02  9.2944358289573301e-02  5.6025881302545176e-03  1.2443496687266254e-03  -3.2256302453915436e-03  2.6131657278729284e-03  1.0621949737610492e-02  2.2634552299939008e-03  8.2343934607005939e-02  7.8724497382164915e-03  1.2734178597413495e-01  1.3224019116832039e-01  -2.4496891905277742e-03  -4.3902730417836183e-03  9.2608338829636552e-02  5.1048715005387549e-03  2.7546604816902419e-03  8.9508424509313109e-02  8.4705262023868147e-02  8.5670711395968491e-02  4.9175914609436700e-04  1.3576308243706645e-03  1.6385776063832689e-03  -7.6972032590996069e-03  -4.6132620268127906e-03  7.6524187524120010e-03  1.0895997953632525e-02  5.3358915541812692e-03  3.9695614969259801e-02  1.4045493891111882e-01  1.0775168437104522e-01  2.5514038089631415e-03  1.0262576582849115e-02  -1.7276062433916621e-03  8.9260243331863220e-02  9.1102863689581634e-02  1.3140015446102294e-02  9.8304024663374203e-03  7.4759546368799445e-03  8.4665131300966142e-03  5.6862872840709854e-03  6.7800064073870259e-03  6.4569752804648295e-03  5.3243274033907715e-04  5.3420960980098034e-04  1.3060558789860821e-01  1.3339524734254901e-01  1.0773923163269308e-01  1.1385797704871195e-01  -3.1310666142574540e-03  -2.4345875426964297e-03  7.4194633111653767e-03  5.2799701373004307e-03  4.3547457614968674e-03  8.8846428536400471e-02  8.1964189166849583e-02  1.0165548581895668e-01  8.7155878181063313e-03  3.3370589805908693e-03  -1.5647128199296283e-03  1.3760707422213900e-01  -2.5715376035083601e-03  4.9806481099864842e-03  6.1044943917586154e-03  7.0416652633720576e-03  1.0978973622517585e-01  1.8817350939504115e-03  9.7403340257680562e-02  8.6933988794661410e-02  8.4911080628507375e-03  7.5563862887476864e-03  8.9565625708061536e-02  1.3905737039000691e-03  1.0017860141682818e-02  -6.7400067171598816e-03  1.0334710780622224e-01  7.9862047579997621e-03  -2.2461769572116688e-03  1.0784764448310385e-01  1.0195717626432695e-01  7.7942677821614806e-02  -2.1764079509221743e-03  -2.6400301060774869e-03  8.0093934764124512e-03  1.2227793319394435e-02  5.1353309543227389e-04  1.2804503500687173e-01  9.7580530769251911e-03  8.0243811747751623e-02  9.6046860783349064e-02  -5.3706148250592738e-04  -4.3725957894678938e-03  2.7650453201424532e-03  5.4276433322443030e-02  4.0728847429778604e-03  9.6455658081093562e-02  4.4917690691783693e-03  4.0552180663201492e-03  3.5596792754651681e-03  8.7310114441511974e-02  9.2320053013973460e-03  4.2142151058332349e-03  6.3977774637576455e-03  3.7396179705766388e-03  1.1395377520727756e-02  7.0304216722457836e-03  7.2000628271218373e-03  8.6050485481785274e-02  1.1517654626222747e-01  2.1455319964183831e-03  1.0658709095899655e-02  8.7735327496245033e-02  2.6139827487915717e-03  1.2428989323471187e-01  5.5305097722714936e-03  -1.5557730700595039e-03  -4.4967631368363894e-03  2.4269065047485574e-02  9.4064972411963266e-03  -1.0916592857751534e-02  2.1954323329033015e-03  9.6221627350857059e-03  8.9402083053824223e-03  1.0792079805999408e-01  1.2031889045928257e-04  3.0294818477497073e-03  3.0085461804984291e-03  -2.6286161829548989e-03  8.9863901318896419e-03  9.3253988984540997e-03  -2.4624811347257495e-03  -3.5456552901980544e-03  -2.8544405240755796e-03  5.9477109562224252e-03  1.1773427565451801e-02  6.1389471922303233e-03  1.3158603656282322e-02  1.1778614733659954e-02  1.2324689844472268e-02  6.7559103284918851e-03  1.1868806240705432e-02  2.9692891466126009e-03  8.3221836564705609e-02  1.4517168132795093e-02  1.5457237470675931e-02  7.8187969323772928e-03  6.9927467339762715e-03  -3.5150153038060496e-03  -3.9036567334860967e-03  7.5024805675259609e-03  7.9579504421962346e-03  8.6461403767839739e-03  8.0872845887877520e-02  8.3761076369259752e-02  2.1761906021597142e-03  4.9581944263565741e-03  8.7720939366797215e-02  1.8011419179699733e-03  2.2715191280476802e-03  1.3393623679048618e-02  1.2003234723021645e-03  4.0256292903694630e-03  -1.7304303782446000e-03  1.0891756579521474e-03  4.8242412187315367e-04  5.6347098095986346e-03  8.7614080449989976e-03  -3.4689781175870395e-05  -1.9166158295580691e-03  -6.3244771001780449e-03  -2.6939003707591724e-03  1.3255893493898377e-01  1.0923949406490292e-01  1.1143866806883673e-02  2.6233778701850998e-03  1.0398522087983378e-01  -6.8147427339187890e-03  4.6145549735467474e-04  1.0495907296057480e-03  3.1923058672984140e-03  1.2018467414941370e-03  1.1263129230831739e-02  4.4823924178471518e-03  5.2245705868660770e-03  -4.0368013101983683e-03  2.8797331903167920e-03  -7.2690612484598086e-03  2.1150577605151617e-02  -1.7496061674058734e-03  -7.8639816282388318e-04  9.4048485813714544e-04  4.5918186951153439e-03  3.7312566885334035e-03  9.3077199728762283e-03  9.6335306199040391e-03  9.6974498607813320e-03  3.9417753336554971e-03  9.4637872852603749e-02  1.0422268015792870e-01  1.0162062012155283e-02  1.0261826960714020e-03  6.5271271699241596e-03  4.5400650332030569e-03  9.0471746429588770e-03  1.5353344508556474e-02  -4.5634230533227755e-03  9.7224198625983811e-03  6.7771486211307139e-03  2.7150220669585330e-03  2.2453631053753189e-03  3.1154637915816004e-03  3.1530632875067014e-03  8.7199770964874069e-03  3.1779929608721489e-03  9.9622084414029685e-02  1.0579353064811971e-01  1.5438362116210946e-02  1.2813351383811693e-02  4.5265968621735703e-04  1.3458801427912402e-03  5.2729302423299550e-03  1.4701107408671156e-02  1.1171889596126004e-02  9.1652043239237833e-03  5.8849448029290813e-03  2.2659050567695833e-03  5.8613117629910862e-03  2.3623630009024441e-03  9.6343534296836186e-03  4.5417726861991808e-04  1.0733701560760835e-01  7.5598660018637395e-02  1.0482363734654288e-01  9.6249085058432757e-02  1.1789796287803925e-01  1.0790315551333882e-01  1.0418342299125154e-01  1.0790797442837669e-01  2.1552225512369823e-03  2.4053409293866277e-03  5.9367825398226555e-02  1.5215675146688779e-02  1.5658551578595873e-03  1.5928058224998907e-02  2.2580683394650609e-03  7.7160923415829138e-03  3.1554729861495031e-03  1.4662693003004395e-02  2.1904773586888062e-03  2.2553158628326416e-03  3.1648194138677050e-03  -1.4709343551892529e-03  6.3481286816230876e-03  9.0974042732971036e-02  7.1206788400428989e-02  4.8561064159253556e-02  1.2942574198158675e-02  2.4841084479880408e-03  1.2519387131809892e-01  1.0370197002281588e-02  1.3902203422251959e-02  2.2798329847924068e-03  2.9258812140320216e-02  8.9750979945554824e-02  1.0559811412659216e-02  1.0138258235542812e-02  8.1820836090698734e-02  4.8478282469302664e-03  8.5807987640101023e-03  9.0533738162711392e-03  3.8305562708851864e-03  9.4867616554691284e-03  9.5270261110738351e-03  6.5550865811431595e-03  4.0481368944909196e-03  7.0472144981492540e-03  6.4848929960137618e-03  4.8699546984673422e-03  6.9871735389358284e-03  1.1347710432964685e-02  3.6050696910543190e-03  8.9969836897769804e-03  7.9620504277570798e-03  1.8170212207171711e-03  1.4800887738117706e-03  1.0114068334695410e-01  6.7807632794815817e-02  -5.9515720602191114e-03  -2.5759533684526713e-03  1.1162692146771156e-02  8.0888766519591759e-03  3.6203883938706097e-03  3.7483426973254630e-03  1.4987045922640412e-03  8.4518364120713535e-03  2.1089912940774891e-03  5.2060884568924087e-03  1.0291695108574933e-01  4.8183019556038839e-03  6.6074067739374485e-03  4.6962277901270713e-03  3.1327195120647118e-03  1.0692187661908251e-01  4.1612559220097071e-04  -7.9753746456024993e-04  8.3391746204426326e-03  8.4277750310660371e-02  -2.2384633499592115e-02  8.1938948365483186e-03  7.3425076303843687e-03  3.8465017766599200e-03  1.2750247010404031e-01  8.2611296637777904e-03  -3.6090276919792988e-03  7.8871697837107988e-03  -4.8677200246840142e-03  1.0677649364025683e-01  1.1301356164067383e-01  8.7972636538677131e-03  1.2534652235575240e-02  1.3081616807775845e-01  1.0787806123073312e-01  4.2996262059613911e-03  -1.0267429225111801e-03  3.4090289280833954e-03  1.3251805132967106e-02  2.5515052051778443e-03  8.4614054624374876e-03  5.1120203086950627e-03  6.3362299728744759e-03  5.9569665751314990e-03  1.1284176369257785e-01  9.9972608090593662e-02  1.4422870869591022e-02  1.1048418370966909e-02  8.5385389701891409e-03  9.8794320247815193e-03  7.0645439995463332e-03  9.8716527003701472e-03  1.1054174217909956e-02  5.3475942926116873e-03  4.7830954828313134e-03  1.4007386705398913e-03  9.5026442431712203e-03  2.9695456748995686e-03  1.5770440518809700e-01  1.0761979253495363e-01  8.7480727847127331e-03  3.9523759948486203e-03  -7.9517915877428316e-03  1.0099371820829839e-01  9.3203669364493591e-03  8.4472887478885469e-03  1.0958711545958491e-01  8.3398655483080952e-02  2.8828273504352703e-03  1.0962646363329785e-01  8.8455843654873384e-02  9.6152496649808874e-03  -1.0908405092282194e-02  1.5170976314746894e-02  5.0937815805934678e-02  1.4881524653303431e-02  4.7517850472377030e-03  -6.9113145809419647e-03  1.3135954709539812e-03  1.2033380793054260e-01  4.8862569952727863e-03  1.0276874849449238e-02  7.5162789646437784e-03  4.2283952061705973e-03  2.0569547741594355e-10  8.9797797015637296e-02  -7.8745297081928717e-04  -3.4798685916646549e-03  3.7168479502659542e-03  2.9610324773735094e-03  7.2429134971545303e-03  1.0979917569980177e-01  1.2465518599858141e-01  4.6475900249896704e-04  1.7860770115620905e-03  8.5405859733498624e-02  9.9128348674500558e-02  1.2194531408466246e-01  3.9978494170064341e-03  1.0414095181324671e-02  9.6977422207619769e-03  9.3224273766100048e-03  9.2088278928636937e-03  1.0570463116617319e-02  4.3407868797927995e-03  3.2159934563684286e-03  1.1339217227704831e-01  1.0066193738461916e-02  9.9076021064115598e-03  -1.9238238901853964e-03  4.7125782017881993e-02  9.0005856144872609e-02  8.1761987242155762e-02  4.2585682882270047e-03  1.1185167135614682e-01  1.4651952817578785e-02  6.6453734395306259e-03  -4.8960176447784640e-03  4.4632602478413943e-03  5.9616646766969678e-03  9.3853507678953677e-03  2.6950424784852645e-10  1.3431947454322879e-01  8.7408570528522814e-02  9.0187011920272522e-03  1.0077111725502866e-02  -4.0494693445066940e-03  8.8145668838945819e-03  6.1693436662850548e-03  1.0269157799397405e-01  9.2836275084108175e-02  1.7080803802298518e-02  2.9606593427941703e-03  6.4290773015325473e-02  2.6643777098491147e-03  2.5305142481261739e-03  9.6095739986690968e-03  7.3536799262919209e-03  3.0696556251129083e-02  5.8123970861560176e-03  5.2668852730478315e-03  5.6584249346647124e-03  8.3248638795561166e-04  9.1672650435688501e-04  3.8181152681994815e-04  8.0084539233208893e-02  5.2285853295575190e-02  4.3082089526486752e-03  2.8005785365372870e-03  -5.9473195207092322e-03  2.9580844676257664e-03  1.3937817283086374e-02  6.0903792938861541e-03  5.5846432954853456e-03  1.1624902180622353e-01  8.0276565241766649e-03  1.4836695074919021e-02  1.2378397747697799e-02  1.0769850785764726e-01  1.1350951872500022e-02  8.3245108711805418e-02  -4.9358840216724926e-03  1.0325713228026692e-01  6.9934661751555683e-03  1.4177228759589091e-02  -5.4395407903798387e-04  8.8922948068357252e-02  -2.5141442448939834e-03  5.8862460932176193e-04  2.0569547741594355e-10  2.8501238103514894e-03  1.3607494368065313e-03  8.1359887228898246e-03  7.7532438367852062e-03  8.9894898746747651e-02  8.7577463397405006e-02  3.6687115069991335e-03  5.5496780638883612e-05  3.4005801688507180e-03  1.4494664995906412e-03  8.7785265897094514e-03  8.2963210596381804e-03  8.1844598751739123e-03  7.4033682831078182e-02  9.8371066095559317e-03  -3.0754418990482472e-03  1.5715931738375571e-02  7.6611343249588905e-03  2.4666978937941445e-03  3.4341011097812259e-03  2.6269631192980458e-03  5.0431745020065389e-03  5.5390462075076523e-03  3.6322316745754442e-03  3.4675369101290015e-03  1.0039640265880273e-01  1.0987885105869959e-01  6.2185348701733843e-03  1.1706705885458414e-01  1.0588016857561765e-01  5.7885160223369652e-03  -7.8640689112440040e-03  -4.1998576073234819e-03  -1.0641420532147227e-03  5.7603235600308242e-03  -4.5088973945030348e-03  9.6528345387291870e-03  7.7667726661222819e-02  4.2340466247343432e-03  8.8604397781011576e-03  8.6440983127639495e-03  8.0811693393929782e-02  -8.8464085897365687e-04  6.6963768202472525e-03  1.5168205500907743e-02  1.1887480639027118e-01  1.0747721632391663e-01  7.9152984653635110e-03  -3.0379318423428832e-03  1.1919704671811323e-02  7.8985786570487052e-03  1.1718485388915914e-02  1.0756060517080547e-01  5.9094990297047512e-03  9.2405881899729536e-02  8.6699371258364549e-03  6.9744134492006574e-02  8.9356688442514991e-04  5.2836869581395062e-03  6.6938733693223326e-03  1.0757771472376265e-01  9.5381511527140167e-03  9.2985139541444228e-03  9.2742091214793234e-03  9.031258333851