<?xml version="1.0"?>
<VTKFile type="UnstructuredGrid"  version="0.1"  >
<UnstructuredGrid>
<Piece  NumberOfPoints="1404" NumberOfCells="2604">
<Points>
<DataArray  type="Float64"  NumberOfComponents="3"  format="ascii">0 0.41 0  0 0 0  2.2 0 0  2.2 0.41 0  0.2353553390593274 0.2353553390593274 0  0.25 0.2 0  0.2353553390593274 0.1646446609406726 0  0.2 0.15 0  0.1646446609406726 0.1646446609406726 0  0.15 0.2 0  0.1646446609406726 0.2353553390593274 0  0.2 0.25 0  0.6923879532511287 0.188268343236509 0  0.7 0.15 0  0.6923879532511287 0.1117316567634909 0  0.6707106781186547 0.07928932188134523 0  0.6382683432365089 0.05761204674887133 0  0.6 0.04999999999999999 0  0.5617316567634909 0.05761204674887134 0  0.5292893218813453 0.07928932188134524 0  0.5076120467488713 0.111731656763491 0  0.5 0.15 0  0.5076120467488713 0.188268343236509 0  0.5292893218813453 0.2207106781186547 0  0.561731656763491 0.2423879532511287 0  0.6 0.25 0  0.6382683432365089 0.2423879532511287 0  0.6707106781186547 0.2207106781186547 0  1.1 0 0  0 0.205 0  1.1 0.41 0  0.55 0 0  0.55 0.41 0  0.275 0 0  0.8250000000000001 0 0  0.275 0.41 0  0.8250000000000001 0.41 0  0.6875 0 0  0.61875 0 0  1.65 0.41 0  1.65 0 0  1.375 0 0  1.375 0.41 0  1.925 0 0  1.925 0.41 0  1.5125 0.205 0  1.7875 0.205 0  0.9625000000000001 0.205 0  1.2375 0.205 0  2.2 0.205 0  1.99375 0.2152743902439024 0  0.4125 0.41 0  2.0625 0 0  2.0625 0.41 0  2.2 0.3075 0  1.7875 0.41 0  1.375 0.1486128048780488 0  1.5125 0 0  1.7875 0 0  1.5125 0.41 0  0.9625000000000001 0.41 0  0.4125 0 0  0.1375 0 0  0.1375 0.41 0  0.6875 0.41 0  0.9625000000000001 0 0  1.2375 0 0  1.1 0.1486128048780488 0  1.2375 0.41 0  1.65 0.1486128048780487 0  0.823495464168302 0.2603780552348366 0  0.3738707794507017 0.2720196349488618 0  0.3662291281331582 0.1311456406657909 0  1.676715909090909 0.2793064024390244 0  1.126715909090909 0.2793064024390244 0  1.348284090909091 0.2793064024390244 0  0.8287581077665108 0.1302150898054257 0  1.894702181800738 0.1282910975492754 0  2.092797818199262 0.1282910975492754 0  1.85625 0.3075 0  0 0.3075 0  0 0.1025 0  2.099172119769978 0.25625 0  0.4752414543992246 0.3180372603390748 0  1.99375 0.08395950269330846 0  1.459960956013612 0.3075 0  1.569025960719943 0.2986889805672169 0  1.03125 0.3278689922742084 0  1.959375 0.3126371951219512 0  1.749222215368287 0.1025 0  1.275777784631713 0.1025 0  0.9228016959331474 0.3075 0  1.000777784631713 0.1025 0  2.2 0.1025 0  1.225938124459196 0.3075 0  1.550777784631713 0.1025 0  1.44375 0.07430640243902442 0  1.16875 0.07430640243902439 0  0.7562500000000001 0.3358727844323386 0  0.89375 0 0  1.899250267340833 0.2229966846119207 0  0.61875 0.41 0  1.766482954545455 0.2934032012195123 0  1.046078563095834 0.2389031808701145 0  1.421109702350723 0.2261157654379721 0  0.07567171807980319 0.25625 0  0.2511897295290552 0.3235829392832554 0  0.07655002503762308 0.1488653460959645 0  0.1377245246847496 0.3206030474919778 0  0.6694099692696568 0.3242771941727899 0  0.9168971191497528 0.1295727156104653 0  0.7562500000000001 0 0  2.118919042110979 0.3422084711244843 0  2.13125 0 0  0.06875000000000001 0 0  1.30625 0.41 0  1.597888256393107 0.2173787389261347 0  0.34375 0.41 0  0.2493272016354703 0.08091360081773515 0  0.5588896233436766 0.3264056208677571 0  1.829299675393195 0.07400700849299596 0  0.1334079128307869 0.08523463035786674 0  1.71875 0.41 0  0.06875000000000001 0.41 0  1.16875 0.41 0  2.038220665644273 0.332420740103091 0  0.8810647413215221 0.2027360103977071 0  0.34375 0 0  0.7453891198966415 0.2471459041008237 0  0.42112093004955 0.1988123139090554 0  0.8314023090855964 0.3351170841770613 0  0.89375 0.41 0  0.7906250000000001 0.06615386481594063 0  1.452769549894695 0.1548122580621249 0  1.369219062229598 0.07430640243902442 0  1.30625 0 0  1.07420695807087 0.07430640243902439 0  1.720943423819132 0.1714577452753128 0  1.157188124459196 0.205 0  1.304056576180868 0.1714577452753128 0  1.67579304192913 0.07430640243902437 0  1.209670467133757 0.136210026696477 0  0.4312800784902823 0.08036147352247747 0  0.8723959680194693 0.07066860609690805 0  1.025335513626278 0.1700681449722324 0  0.7945632284247136 0.1940204203251442 0  0.378125 0.3452261501101892 0  0.3307109909790086 0.2037165635083759 0  0.3009701032039409 0.2702970083403109 0  0.20625 0.41 0  1.58125 0 0  0.4812500000000001 0 0  0.9838963872396855 0.2722244191167347 0  0.06772484939107212 0.3260067317374387 0  0.20625 0 0  1.58125 0.41 0  1.631724228912893 0.3381867502687533 0  1.825608881788174 0.14499488549201 0  1.85625 0 0  1.44375 0 0  1.44375 0.41 0  1.85625 0.41 0  2.13125 0.41 0  0.7562500000000001 0.41 0  0.4812500000000001 0.41 0  1.16875 0 0  1.03125 0.41 0  1.03125 0 0  1.71875 0 0  1.99375 0 0  1.99375 0.41 0  0.9408708167433545 0.0651989315768642 0  1.340625 0.3489494290853124 0  1.134375 0.3489494290853123 0  1.700180620188976 0.3438659752031281 0  0.29668452290037 0.1318471691375986 0  0.3175441051360096 0.06496934809856265 0  0.06509151636162461 0.08140814015999148 0  2.135782184673599 0.07126652247502523 0  1.668441847249787 0.2129203728327609 0  1.295782514339747 0.2378437748815763 0  1.409375 0.3520314716057996 0  2.129248544730567 0.1906135162504124 0  2.060771381434487 0.1989445750470348 0  2.013252586573865 0.1496169464686054 0  1.942766402200229 0.1734448904596831 0  1.895522487186454 0.06076163953489683 0  2.069553871656643 0.06605731020975725 0  0.4670911801404742 0.2498408582391372 0  0.7622743084658112 0.1264100838268133 0  1.274680914880868 0.3520219391081363 0  0.3148669572599245 0.3331753056385887 0  1.614713220494657 0.09473434380863296 0  1.72990325744076 0.2380068107952482 0  1.356580098625191 0.2120393231351682 0  2.034370752044885 0.2668681600792073 0  1.51768709249349 0.3426260931494756 0  1.561883724969884 0.1650446847858835 0  1.197344062229598 0.2523725417393646 0  1.804085235518364 0.3468178408964637 0  1.817887819205233 0.2589243285818559 0  1.905897727272727 0.3485060975609756 0  0.7296439733931823 0.06337466644369745 0  0.4250935971865949 0.1394919578475796 0  0.3773030136511669 0.05130372097998036 0  1.192836486056382 0.3562350748565544 0  1.1029124365364 0.226143510831178 0  1.28257088594801 0.2944411014911587 0  0.1905185804731426 0.06029880676029167 0  1.474860187679412 0.2504218616229368 0  1.406767003493824 0.2829282258560709 0  0.5209826960981064 0.2830664557824064 0  0.5131119502780163 0.3617405848213254 0  0.1948220106098172 0.3081993407644811 0  1.845656689180403 0.1998310418452388 0  2.144958525570388 0.2909790873294231 0  2.2 0.15375 0  0.8833025251326762 0.2625402923007629 0  0.171875 0.3653875762360952 0  1.57794966442982 0.3540357145964566 0  0.446875 0.366068291212731 0  0.4272051715206439 0.2891929346190664 0  1.508991196088596 0.1421783375065625 0  1.50436820029908 0.06143401634903343 0  1.223857000523521 0.08235548624535324 0  0.6137904613287555 0.3066826366281556 0  1.153316824384777 0.1289850171317838 0  0.9751573703656133 0.327632618473408 0  2.148922302309752 0.1258841779285271 0  0.9281250000000001 0.3643758685795699 0  1.621993280276081 0.2841214267927899 0  1.550118654119087 0.2461998729100966 0  1.327182649291491 0.1216967252533594 0  0.9939955742738924 0.04663549843168518 0  1.753125 0.04556020050186112 0  1.271875 0.04556020050186116 0  0.9734326767716519 0.1506854560854393 0  0.103125 0.3675775577080512 0  1.94956388244759 0.1180512551534177 0  1.949997712993411 0.04965831614304109 0  0.717433898748555 0.295596016333797 0  1.771961817615021 0.1530278789497521 0  1.909246823951428 0.2812757146784527 0  0 0.35875 0  1.050632804931928 0.1226269704412814 0  0.05695108326502596 0.2024009637347154 0  1.948575539857022 0.2445328248721197 0  1.697271520964565 0.1233917627620729 0  1.065625 0.3689344961371042 0  1.085849084308977 0.3170853572226867 0  0.1015495998772944 0.04226029099983852 0  1.577403511714593 0.05463601888079143 0  1.751571320346033 0.3651102912045228 0  2.2 0.35875 0  0.7441773632462837 0.1786786606458751 0  0 0.05125 0  1.466879772203159 0.3611261772912453 0  0.6282230348858767 0.3577675483994025 0  1.990280163552011 0.3564754268533217 0  1.17471064520912 0.2990917256188288 0  0 0.25625 0  2.2 0.25625 0  2.2 0.05125 0  0 0.15375 0  1.853978576207987 0.35875 0  1.515638456102889 0.2882700110184686 0  2.150453692751374 0.2387066338105111 0  1.323782677156475 0.04897634338873398 0  1.409375 0.03715320121951221 0  1.406484531114799 0.1087852750766809 0  1.134375 0.03715320121951219 0  0.721875 0.3729363922161693 0  0.7941695928236929 0.3696489254637395 0  0.7934827162619036 0.3013409431456604 0  1.627401732573545 0.04552157221025036 0  0.9352049974617431 0.2507047965699472 0  0.8763260682738339 0.3611103317460093 0  2.045405893604797 0.1105340662939892 0  1.255408269734577 0.1577307500159216 0  2.028125 0.03707597992059326 0  1.003030137506755 0.3689344961371042 0  1.248258025468107 0.2565907092181813 0  1.203125 0.03661323374043041 0  0.4800125512335631 0.0549472816999725 0  2.072662025974815 0.2975086504196739 0  0.240625 0.3729825336867542 0  1.113252391110535 0.10238286244357 0  1.071052763974265 0.1885202618768825 0  0.8738809401657862 0.3106483608284829 0  0.6786819423003397 0.2677558482644021 0  1.887722846421017 0.1760882698830035 0  1.472640588990488 0.1118278026240017 0  0.5843750000000001 0.41 0  1.865937103925594 0.2604137786483804 0  1.463913572748262 0.2030442564990043 0  1.376426316059077 0.3186741374914345 0  0.1038643885363755 0.2162701735320032 0  0.1769473813227781 0.1070849728467114 0  0.458787839809176 0.171541653775316 0  0.240625 0 0  0.04179569703428024 0.2877217852556549 0  0.1258346557601885 0.2699740073054968 0  1.722140693354707 0.282908100935778 0  0.41206179117512 0.2448172567039922 0  0.3702471778075604 0.2265217604228704 0  0.3714881805374215 0.1786967818665642 0  1.77397096061971 0.2481483237422926 0  2.105123889160691 0.03743885948498647 0  1.001138337938679 0.229719337663998 0  1.051242910646791 0.2854826559431138 0  1.395420985247586 0.18
[...]
<PointData  Scalars="f_43"> 
<DataArray  type="Float64"  Name="f_43"  format="ascii">1.0791600318282266e-01  2.0432463098584813e-01  -2.6344803533590273e-11  -1.9670288033879494e-10  8.0359835359668383e-02  8.3537679584374497e-02  7.0141982514575665e-02  6.6423500375037137e-02  1.3684173732459315e-01  1.3834626709248143e-01  8.9227883512339290e-02  7.1110221699276943e-02  -4.8134998694751210e-03  -3.6437793797662564e-03  -7.4897065066049633e-03  -1.4420626236084531e-02  3.5252409069078054e-02  -6.3449118198610956e-03  -2.1108216535070973e-02  8.7339540622730888e-02  1.5899966061749921e-01  1.5172502209339744e-01  7.3918048887064589e-02  1.5290468610736260e-02  -1.9798424386488444e-02  -3.4056595846208751e-02  -2.4760929351836120e-02  -1.1123160595445989e-02  -6.4412438396403390e-04  1.1805949914160584e-01  2.1000377311459926e-03  5.7673940586764651e-02  4.7326625607345157e-02  1.0119939980292349e-01  -1.1366491345742198e-03  9.2755581213124619e-02  7.7806209758479310e-05  -3.3030975083881255e-03  3.3195497396137450e-03  3.9984364649015272e-03  8.2612494966562127e-03  6.4126365051889430e-03  2.1573818366241622e-03  2.8405072608209720e-03  3.9101322316295092e-03  4.1267247351319683e-03  4.9316319833664236e-03  1.6077689725277490e-03  -5.4627614870446720e-04  -1.5635165529789526e-10  2.5664496088993903e-03  8.0321190119647057e-02  1.5151542529027373e-03  1.8541325103348077e-03  -9.0667471270775405e-11  5.4219200824391356e-03  3.0552869663919460e-03  1.1528064633451131e-02  4.6148874460163157e-03  1.2235537108066590e-03  8.2207800430030660e-04  1.0637753422991211e-01  1.1385452679299163e-01  1.0689184294280807e-01  7.7930067576044036e-03  8.1749023007994171e-05  -5.4748497085287345e-04  1.6091243487304324e-04  2.8597844225271328e-03  6.7372837770507997e-03  1.0120832581765474e-03  9.1321101800984197e-02  9.9455423323762462e-02  4.2557158843299229e-03  1.7962599140754528e-03  2.8676235209159186e-03  7.7595984741552317e-04  3.2797128050238268e-03  1.2391995369881584e-03  4.8134433177560330e-03  1.0869898441677596e-01  1.2852046102925713e-01  1.2824031443910977e-03  7.1778985630961301e-02  2.2127284519603461e-03  1.2488913714168131e-03  1.3753999643436393e-03  1.9896995943401892e-03  3.3481548215229281e-03  5.4176255510384541e-03  -9.7536222054215422e-04  1.6376307189820199e-03  4.8207669968511308e-04  -9.9591498959302282e-11  3.0723048765518360e-03  1.0092974032887402e-02  9.0569188582575576e-03  -1.0482234921072870e-03  1.1245528582918391e-03  -2.0905772995334114e-04  3.8160882895841557e-03  2.3384755672426726e-02  5.3641094192305935e-03  1.4665992430159794e-03  3.0511712197404837e-03  1.1324783484865771e-01  9.0192995523776853e-02  1.2853512807154155e-01  1.0507133341304109e-01  1.6608038737856686e-03  9.5626497883000920e-04  -3.1028697969454296e-03  1.0660968274209374e-03  7.8231794468892630e-04  1.2791887728080578e-01  2.7362791851840082e-03  3.8328412087869231e-03  8.6705083637732938e-02  9.5152572094542032e-02  3.3982644012210579e-02  3.9595841710893444e-03  1.2081201384960638e-01  5.1987912854386210e-03  1.0830524101724588e-01  2.6043783235946195e-03  2.1944485742501803e-03  1.9196829899020948e-03  1.0273398391421057e-01  -2.9228347930417816e-03  9.6303437620989210e-02  1.0640251387725467e-03  2.4623134180319222e-04  -4.2919284745904083e-04  6.5043297322965416e-03  4.5138942189657683e-03  2.0816390598362247e-03  -6.2375136448381509e-05  5.4994368747321000e-03  -3.7268546133830911e-05  -2.1587984830048488e-04  7.4739019846440250e-03  -1.5860199007327492e-03  1.1693623456271683e-01  2.6750398654302012e-04  1.0155356083923345e-03  1.6268202118634699e-04  8.5151481508084353e-02  8.8795859664667215e-02  8.7321317273197918e-02  1.0081249514263974e-01  1.0412076018372204e-02  1.0643064162042548e-01  1.8248194727467800e-03  1.0824150917952212e-01  1.0528259983772334e-01  2.2885699568071815e-03  3.1287193842262665e-03  4.1723971511189043e-03  3.5733890827314460e-03  1.0239622679055010e-02  1.3545924687272744e-03  4.8586718234176389e-03  9.0081900767978993e-04  1.5833181346662276e-03  6.8261115027042338e-02  -1.1013906726611731e-03  1.4757028334704111e-03  -1.0541129914310709e-04  6.1735770179380308e-03  2.1930497334472954e-03  2.8657245515367564e-03  3.0526969923197944e-04  2.9561757872420924e-03  2.8112856489465646e-03  4.7654663542088180e-03  8.7449144362614792e-02  1.0133998505965915e-01  1.2847006692942836e-01  7.3511831224426201e-04  4.8622980985312354e-03  1.3969009417802701e-03  2.0376724235965414e-03  8.5645612434829253e-04  1.6951959017536891e-03  2.1319572129914221e-03  2.9850949027762498e-03  3.1388492019763718e-03  1.4468352384652927e-03  8.0966724504746193e-02  -2.0873817985410195e-03  3.3182737625669033e-03  8.9040664594576324e-02  8.9996655979270174e-03  5.1308384168206470e-03  2.1352397217230326e-03  2.1662220812844347e-03  9.7289512715576681e-04  6.7847389358890150e-03  1.0105445887759572e-03  5.3162012402286117e-03  5.0054037156436913e-03  4.1906724320571343e-03  -2.1821499743883721e-03  1.1799721163150807e-01  1.0610886488069184e-01  3.1716147867963782e-03  9.0912492522314601e-04  3.0755507655415393e-03  1.0623575540231235e-01  1.9682444883504079e-03  2.2916131441425239e-03  4.5724198949703129e-02  5.8146730980133218e-02  9.2519768760201210e-02  4.2910019672116320e-03  7.0222613162003011e-04  -3.1448059514413518e-11  1.8653830317036629e-03  1.0326186735721418e-01  1.8697397581396453e-03  7.5151019496128152e-02  8.6545516283452847e-02  8.2560205127748879e-03  1.1021768232814838e-02  -1.3655023175330628e-03  -3.7510340061377093e-05  -8.3622402726717842e-04  1.6792756872984567e-03  6.0182831878104962e-04  1.0681366099008593e-03  2.7688120519929081e-03  2.0528863279083878e-03  7.7041475017812500e-04  1.9381715343697473e-04  5.4128002812389824e-03  1.1836548531256511e-04  9.8277308610209739e-04  1.0744695153263610e-01  2.6915789388068604e-03  2.6019409348842712e-03  -3.0571964871506977e-03  4.9305478331003556e-03  4.0094060347542803e-03  1.0775258599542986e-01  4.1981728153699690e-04  1.2072103343921316e-01  3.2840091032915832e-03  6.4195371763011311e-03  2.1206566526933025e-03  2.2921436887044038e-03  1.2263772234729434e-01  1.0450308147417460e-02  5.3339084822780674e-03  -1.9670288033879494e-10  -2.5856960145732234e-03  1.3723825795427619e-01  1.2555829810883495e-03  1.7019790986316962e-02  2.9194494690774750e-03  2.5308958297426019e-03  1.1213042161764110e-01  -1.5635165529789526e-10  -2.6344803533590273e-11  1.2376250311057574e-01  4.8708279131607184e-03  8.7412984023635507e-04  6.1795414851447913e-04  2.3488211168556689e-03  7.9368155590637483e-03  5.9750719843460866e-03  -7.3616348881273158e-04  4.2158807611338295e-03  1.1766284120616243e-03  4.9978598180193076e-04  9.0957241692510519e-03  1.9225170660317470e-03  8.7513162410816914e-04  1.7299816239205207e-03  -1.4206934337839265e-03  1.8572573434153068e-03  1.5785674670158948e-03  1.5304267829317397e-03  -9.6205176655401992e-04  1.0952070662851378e-01  1.6766979559431107e-03  9.5870835598986737e-02  -3.4671931614906819e-04  8.7854724850967229e-04  1.3998891383460925e-03  -1.0695466902558015e-02  3.6211123887808080e-03  9.0723981144330331e-03  3.4852364037624824e-02  4.4918162497911791e-03  4.1305343675869036e-03  2.6626837432137322e-03  1.2367704746003390e-01  1.0724139002019839e-01  1.1617337634985948e-01  1.0230132924790636e-01  1.0994230669349395e-01  1.0618926934796293e-01  5.0632109602493595e-03  9.1686115761278136e-02  9.1796769140886719e-02  9.2842697579902184e-02  5.2067745801715982e-03  1.0634718013543473e-03  1.6170934494490899e-03  1.8496350635637334e-03  3.3965754684992739e-03  2.3527952718409859e-03  8.2767178378796019e-02  7.6947310092483397e-03  1.2738840078609137e-01  1.3221612921210643e-01  1.4753499659671400e-03  1.3143415763192485e-03  9.2902188412113867e-02  5.2374552600559848e-03  2.7574669846663065e-03  8.9310837946167801e-02  8.4532083866295848e-02  8.5849668130677070e-02  4.8240461839421797e-04  1.3702382415632457e-03  1.6731368020498026e-03  1.3981628705786028e-03  6.1460942433508672e-04  3.1461120631745428e-03  9.7860215847740718e-03  4.5516021895537530e-03  3.9016317642589816e-02  1.4094149649408289e-01  1.0785710687207324e-01  2.6285251889248203e-03  2.6313381353982321e-03  -6.4885766181226859e-04  8.9504304117791339e-02  9.1412032918837496e-02  -9.4945907594694593e-04  1.1290755496268795e-02  5.3403063454774517e-03  1.6183413796105818e-03  2.1689111904680186e-05  7.1475374763318514e-03  6.5810864520834088e-03  4.6523981781630604e-04  5.2980170476330424e-04  1.3057832182987714e-01  1.3337063855860293e-01  1.0794065214286980e-01  1.1371629552413240e-01  -5.9741555912167421e-04  -2.7954478204035343e-04  3.6690313327064970e-03  4.4902010423114981e-03  3.4722415388811069e-03  8.9067621689813942e-02  8.1863737621860347e-02  1.0124164013108067e-01  1.1197876213879408e-02  3.5872635294075784e-03  1.6099969547694480e-03  1.3766877553898160e-01  3.4977466371142443e-04  5.2136418373416619e-03  5.2344381218441599e-03  4.0685845385299924e-03  1.0956202628296163e-01  1.6663278463926753e-03  9.7100108895234211e-02  8.7104115646155972e-02  4.1521994979928124e-03  3.2124587854119634e-03  8.9791722400183668e-02  1.2606755323690143e-03  1.0541001729906151e-02  1.8551359960384331e-03  1.0303204017997060e-01  2.2850198523119356e-03  -8.8213918770288242e-04  1.0804694415472413e-01  1.0155549217025860e-01  7.8092653070894552e-02  -7.3495657658134592e-06  6.6212232810593051e-05  8.2014423774173816e-04  -2.2084112401565538e-04  4.6965855188177419e-04  1.2804476653874083e-01  3.2348992867295766e-03  8.0173091956803264e-02  9.6374199701101976e-02  -3.3529820446373244e-04  -4.2645798284046731e-03  2.2329527191601432e-03  5.3758839094747844e-02  4.4092004666219427e-03  9.6721558816539391e-02  3.5799273029798345e-03  3.1843205286150814e-03  2.8238870830141461e-03  8.7155870654377438e-02  1.0187334023524668e-02  1.4917221924101445e-03  6.3499713373464106e-03  2.5443987793215793e-04  -3.8942360005222374e-04  7.8647417070667348e-03  7.7201450260856331e-03  8.5930826158489293e-02  1.1533975818370323e-01  2.2271372482999745e-03  5.2406954509883162e-03  8.7898835815088963e-02  1.7444036739411651e-03  1.2437798869772514e-01  4.8291212923190453e-03  -1.5172695748016968e-03  -3.2194501335097575e-03  2.3613372629754124e-02  6.0471759413127379e-03  -1.0564575619176821e-02  1.8265840186063084e-03  1.8221700122711653e-03  1.7369454082330417e-03  1.0812641386529374e-01  1.1055170825682390e-03  7.4772759130766278e-04  1.2262948296267067e-03  -1.4926141724340674e-04  1.1241660911373862e-02  -3.3882510968876806e-04  -1.1515769303812983e-03  -1.9126892959807713e-03  -2.2415742319728221e-04  5.1851147187714332e-03  -1.9031849173402278e-04  5.6027857996837913e-03  -7.8565500522711747e-04  3.4610233445714171e-03  4.8836059766073246e-03  6.0113082396789008e-03  1.0502417700578857e-03  2.5508164558071676e-03  8.3650978316575211e-02  -1.6706991228287991e-03  -1.4300010953785566e-03  2.1907875034215293e-03  4.0374073272447571e-03  7.7531173646084651e-04  5.0689206139946472e-04  3.2182185639773467e-03  5.6994899952258222e-03  1.3167638810281314e-03  8.0815986640744922e-02  8.3775130251756702e-02  1.8731403892058615e-03  4.0401011857386562e-03  8.8025516056698130e-02  1.7340818223636567e-03  2.1847503203901884e-03  6.9777087768377126e-04  1.1831326538675700e-03  2.2386991387793737e-03  -1.7740738494463071e-03  1.0292313249222849e-03  4.4938346794008211e-04  5.4094542894195952e-03  1.0941470973798198e-02  1.2637299680435274e-03  6.8655013701985875e-04  1.2770444102529234e-03  -1.7183485496625588e-04  1.3256621832236426e-01  1.0905392962768197e-01  7.0965867022894100e-03  2.4987967457474861e-03  1.0358449137980889e-01  -4.3167633132881163e-03  4.1189137585652310e-04  9.2183847168813486e-04  2.9956847072378553e-03  1.2123392899055948e-03  -1.9694808979267157e-04  3.6823187605543690e-03  4.6048727883854649e-03  -1.8320375244549173e-03  1.2535327897066539e-03  -7.1065260085104434e-03  2.0912036326927133e-02  3.7844142212488759e-04  1.8374532769469380e-03  1.7335480436784794e-03  2.8643157719778914e-03  2.3806607785846301e-03  3.0224788542213533e-03  2.5062716584201587e-03  2.4325702355736290e-03  2.6007856004092457e-03  9.4326181736364728e-02  1.0380021314988946e-01  4.5521605111525027e-03  9.2235248056891472e-04  2.7734601182161523e-03  3.9383427156108874e-03  4.3084047020026407e-04  -5.7004125834946885e-04  1.7914098106560166e-03  2.0878232978639930e-03  4.7145890353585511e-03  2.4428632113984074e-03  2.0390717253411066e-03  6.8819760161985342e-04  3.2497924961512317e-03  2.8626810331018045e-03  2.4923546348140911e-03  9.9981984510718838e-02  1.0605746930740703e-01  -9.4566250449877013e-04  4.1323914459198349e-03  3.9819984594504748e-04  1.1531908636222108e-03  3.7852938755974395e-03  -9.4133320627969540e-04  8.5788183285190091e-03  1.1479953412374612e-03  5.4491346257673854e-03  1.7969534431268651e-03  5.3204824167273537e-03  5.0496036368957633e-04  1.7412363812290095e-03  4.4564142327667986e-04  1.0748152935981294e-01  7.5473760552960886e-02  1.0455265125046052e-01  9.6636486295355206e-02  1.1781548614386210e-01  1.0812585302063779e-01  1.0453126141945393e-01  1.0810304178186503e-01  6.4294554687533540e-05  5.0636995579415075e-04  5.8991454335583053e-02  1.4077475587126858e-02  2.3714228449214247e-03  -1.0450678260994441e-03  1.1390071939957468e-03  9.3709289276823707e-03  2.5146106680411315e-03  4.5914221956556370e-04  4.4535485362413109e-05  1.8609858061436519e-03  3.3882184475564196e-03  1.2609289879032665e-04  5.0415051901741290e-03  9.1029465175367891e-02  7.1238584094820950e-02  4.9501278856282555e-02  -4.8342778310395183e-04  2.0892472653821991e-03  1.2515569207784830e-01  7.3476594471025445e-03  -8.8474952322027971e-04  1.0658706553611677e-03  2.8410250794771361e-02  9.0043762567434737e-02  2.1969172707665551e-03  2.7430154272233562e-03  8.1721297778612159e-02  3.0374364621021861e-03  9.2463578771227197e-04  8.6180307266948920e-04  3.0137073915735813e-03  1.5445890107734111e-03  1.6908324425458014e-03  4.8132047963303460e-03  4.3513594354692006e-03  1.4373098702439558e-03  5.1999520792714781e-03  3.9976341251543148e-03  4.2834168193223911e-03  7.6484461666707926e-04  3.8495680370007352e-03  1.1759072176408104e-03  9.9413177651602909e-03  1.5211816068829384e-03  1.2767613173535130e-03  1.0085342388944685e-01  6.7561381474075990e-02  1.5987714457724562e-03  -9.6037247004386866e-04  2.2109783473538381e-03  3.4081346034754881e-03  3.3559791216745288e-03  3.2000400987753324e-03  1.5116564137730405e-03  1.0485933301631862e-04  2.1408523421698766e-03  5.2896793638113797e-03  1.0247547598921916e-01  5.0975804188599988e-03  4.6924054680570976e-03  4.5929814631344504e-03  2.5133101615376283e-03  1.0712899900197209e-01  3.9865295435466603e-04  -3.9091329128255851e-04  8.6387514689706523e-03  8.4330935296913961e-02  -2.1669258308146488e-02  9.9391510300408919e-03  8.4873862713332141e-03  4.1596820858233290e-03  1.2759559067527287e-01  1.8193292482454734e-03  -2.4113873423452425e-03  2.4794758868956291e-03  1.9696713980986553e-03  1.0663532478111190e-01  1.1322512119703211e-01  5.8276364173671371e-03  2.2631592655120653e-03  1.3208166815272027e-01  1.0765078427481531e-01  4.6286634760508557e-03  1.4970167359601742e-03  3.6609560412826899e-03  -1.2545621447951729e-03  1.7819356720234403e-03  1.0779978067333612e-02  4.8638354710576820e-03  3.1080296239527770e-03  5.2378153128527106e-03  1.1270892600100055e-01  9.9728431247825697e-02  -8.1469496044091249e-04  4.2035649205256496e-04  2.0479520518538186e-03  3.1773825264999747e-04  5.6394361489586087e-03  1.0300945593504494e-02  1.0007494805426518e-02  5.2692216772477693e-03  4.9577093071954785e-03  1.3038132068152587e-03  1.1211078822663298e-02  3.1630783024939471e-03  1.5768881606821913e-01  1.0782522118884347e-01  8.3057247062980673e-03  3.1337949957968209e-03  -5.2765059208509562e-03  1.0126971649999146e-01  3.3727240848620741e-03  1.2479807943135148e-03  1.0946947307572608e-01  8.3418898117526591e-02  2.3985188969620711e-03  1.0981962822687755e-01  8.8745762494210539e-02  2.6795540181123378e-03  -8.8471994818361301e-03  1.5896028992602215e-02  5.0428211716386853e-02  -8.6759978149986508e-04  5.0227494536192645e-03  1.0009913568225178e-03  1.1272729542590426e-03  1.2045789030306692e-01  3.9946139788846913e-03  5.7655120098428761e-04  7.8147301141597725e-03  4.4631252048040722e-03  -1.5635165529789526e-10  9.0090228740248898e-02  1.7399167902818638e-03  1.9474317727681096e-03  4.5060666421806498e-05  1.4540064672307221e-03  3.5968003944497136e-03  1.0953215562955702e-01  1.2470583942220795e-01  4.1036207522590173e-04  1.7600199541450065e-03  8.5772676844297735e-02  9.9439939188483956e-02  1.2185952324256752e-01  4.0577363814006577e-03  2.8824201222495669e-03  2.8783372037788288e-03  1.2845742770682287e-03  2.8146601178583013e-03  9.5598736736837286e-03  4.6775625142730136e-03  1.9199127246382667e-03  1.1358307408361575e-01  2.6859365496449098e-03  2.4102757124015448e-03  1.6294298849837995e-03  4.6563874772701991e-02  9.0326061872355465e-02  8.2180247638328138e-02  3.9663585525758719e-03  1.1203609180466469e-01  1.4580971464122593e-02  6.1982864018964535e-03  -4.8944274290280030e-03  1.2010809504119850e-03  1.2348849739154152e-03  4.4561367844789105e-04  -9.9591498959302282e-11  1.3384379295575688e-01  8.7595604129537277e-02  2.7470753657802653e-03  2.1412077820411979e-03  1.7098700575096870e-03  3.0452044534487548e-03  5.9700155405120877e-03  1.0231921475759144e-01  9.2846783908957703e-02  1.6032991175919095e-02  2.5661185523929457e-03  6.3910411753668558e-02  2.1277741832537194e-04  2.6609614637389881e-03  7.6000700250032265e-03  3.2377812431780392e-03  3.0798189953498017e-02  7.3527296410399127e-03  4.3380974181046906e-03  5.3845566908556205e-03  8.2112153738137785e-04  8.8379627623754180e-04  3.6903812614572166e-04  8.0040427761466304e-02  5.2973667545598270e-02  4.2241479547954703e-03  2.9447843925824199e-03  -5.8551320585087784e-03  7.0907554007246134e-04  1.4603791208621861e-03  5.8086341245389252e-03  4.9306627082140687e-03  1.1640942186043388e-01  8.9609983154599546e-03  -1.2722708218737776e-03  -3.1373377231742059e-04  1.0790205546924705e-01  1.2363826431253384e-03  8.3558900893672100e-02  -2.8688491198434183e-03  1.0294941273749199e-01  3.3291750620843110e-03  2.5376602341454278e-05  8.8840976773300797e-04  8.9176958774243781e-02  -1.0576694733000420e-03  1.2061748905513316e-04  -1.5635165529789526e-10  1.8052958643396968e-03  1.8053336691759867e-03  1.5880718691398058e-03  2.5586514052920008e-03  9.0119459338703856e-02  8.7787504636818989e-02  2.9638574847419036e-03  -4.1558171896849931e-04  2.8746763872934829e-03  1.3800184706734627e-03  2.7840866115987134e-03  1.5356903712567432e-03  2.8034087420949934e-03  7.3842023422256639e-02  3.0065884405592099e-03  -1.8609102178811518e-03  -1.2590366442193678e-03  6.4707197808082980e-03  2.2966113465074799e-03  2.1449486464292723e-03  2.1083774731003565e-03  4.6093151477308511e-03  5.3838274822954092e-03  2.8614797028193618e-03  2.7397532231714294e-03  1.0023023526942419e-01  1.1007486718408657e-01  5.1530099390958220e-03  1.1695967931914610e-01  1.0609433571647971e-01  5.1517554377176703e-03  1.3262400420994925e-03  7.0817564147673340e-04  2.4008101680966191e-04  2.9139175775200477e-03  8.2736132977123146e-04  1.8084311162494952e-03  7.7555014139570652e-02  3.5765551897181959e-03  3.2976949605880005e-03  -1.3846602070662314e-04  8.1190212861261241e-02  -1.2243790194827226e-03  4.8345410599651556e-03  -1.6255779336068641e-03  1.1949662327421502e-01  1.0846379697324683e-01  1.9918129984193367e-03  1.8853695233645639e-03  1.9824230065982199e-03  9.7270411452176041e-03  6.1289655790189752e-03  1.0776141459250055e-01  5.2137439500888807e-03  9.2732396293526115e-02  1.2790070664963251e-03  6.9735526698379707e-02  7.7320423364214707e-04  4.5449594812885909e-03  4.6338645915386242e-03  1.0696225878238523e-01  3.2189083925256269e-03  1.3194651990735412e-03  1.1614621605444762e-03  1.0578390