<?xml version="1.0"?>
<VTKFile type="UnstructuredGrid"  version="0.1"  >
<UnstructuredGrid>
<Piece  NumberOfPoints="1404" NumberOfCells="2604">
<Points>
<DataArray  type="Float64"  NumberOfComponents="3"  format="ascii">0 0.41 0  0 0 0  2.2 0 0  2.2 0.41 0  0.2353553390593274 0.2353553390593274 0  0.25 0.2 0  0.2353553390593274 0.1646446609406726 0  0.2 0.15 0  0.1646446609406726 0.1646446609406726 0  0.15 0.2 0  0.1646446609406726 0.2353553390593274 0  0.2 0.25 0  0.6923879532511287 0.188268343236509 0  0.7 0.15 0  0.6923879532511287 0.1117316567634909 0  0.6707106781186547 0.07928932188134523 0  0.6382683432365089 0.05761204674887133 0  0.6 0.04999999999999999 0  0.5617316567634909 0.05761204674887134 0  0.5292893218813453 0.07928932188134524 0  0.5076120467488713 0.111731656763491 0  0.5 0.15 0  0.5076120467488713 0.188268343236509 0  0.5292893218813453 0.2207106781186547 0  0.561731656763491 0.2423879532511287 0  0.6 0.25 0  0.6382683432365089 0.2423879532511287 0  0.6707106781186547 0.2207106781186547 0  1.1 0 0  0 0.205 0  1.1 0.41 0  0.55 0 0  0.55 0.41 0  0.275 0 0  0.8250000000000001 0 0  0.275 0.41 0  0.8250000000000001 0.41 0  0.6875 0 0  0.61875 0 0  1.65 0.41 0  1.65 0 0  1.375 0 0  1.375 0.41 0  1.925 0 0  1.925 0.41 0  1.5125 0.205 0  1.7875 0.205 0  0.9625000000000001 0.205 0  1.2375 0.205 0  2.2 0.205 0  1.99375 0.2152743902439024 0  0.4125 0.41 0  2.0625 0 0  2.0625 0.41 0  2.2 0.3075 0  1.7875 0.41 0  1.375 0.1486128048780488 0  1.5125 0 0  1.7875 0 0  1.5125 0.41 0  0.9625000000000001 0.41 0  0.4125 0 0  0.1375 0 0  0.1375 0.41 0  0.6875 0.41 0  0.9625000000000001 0 0  1.2375 0 0  1.1 0.1486128048780488 0  1.2375 0.41 0  1.65 0.1486128048780487 0  0.823495464168302 0.2603780552348366 0  0.3738707794507017 0.2720196349488618 0  0.3662291281331582 0.1311456406657909 0  1.676715909090909 0.2793064024390244 0  1.126715909090909 0.2793064024390244 0  1.348284090909091 0.2793064024390244 0  0.8287581077665108 0.1302150898054257 0  1.894702181800738 0.1282910975492754 0  2.092797818199262 0.1282910975492754 0  1.85625 0.3075 0  0 0.3075 0  0 0.1025 0  2.099172119769978 0.25625 0  0.4752414543992246 0.3180372603390748 0  1.99375 0.08395950269330846 0  1.459960956013612 0.3075 0  1.569025960719943 0.2986889805672169 0  1.03125 0.3278689922742084 0  1.959375 0.3126371951219512 0  1.749222215368287 0.1025 0  1.275777784631713 0.1025 0  0.9228016959331474 0.3075 0  1.000777784631713 0.1025 0  2.2 0.1025 0  1.225938124459196 0.3075 0  1.550777784631713 0.1025 0  1.44375 0.07430640243902442 0  1.16875 0.07430640243902439 0  0.7562500000000001 0.3358727844323386 0  0.89375 0 0  1.899250267340833 0.2229966846119207 0  0.61875 0.41 0  1.766482954545455 0.2934032012195123 0  1.046078563095834 0.2389031808701145 0  1.421109702350723 0.2261157654379721 0  0.07567171807980319 0.25625 0  0.2511897295290552 0.3235829392832554 0  0.07655002503762308 0.1488653460959645 0  0.1377245246847496 0.3206030474919778 0  0.6694099692696568 0.3242771941727899 0  0.9168971191497528 0.1295727156104653 0  0.7562500000000001 0 0  2.118919042110979 0.3422084711244843 0  2.13125 0 0  0.06875000000000001 0 0  1.30625 0.41 0  1.597888256393107 0.2173787389261347 0  0.34375 0.41 0  0.2493272016354703 0.08091360081773515 0  0.5588896233436766 0.3264056208677571 0  1.829299675393195 0.07400700849299596 0  0.1334079128307869 0.08523463035786674 0  1.71875 0.41 0  0.06875000000000001 0.41 0  1.16875 0.41 0  2.038220665644273 0.332420740103091 0  0.8810647413215221 0.2027360103977071 0  0.34375 0 0  0.7453891198966415 0.2471459041008237 0  0.42112093004955 0.1988123139090554 0  0.8314023090855964 0.3351170841770613 0  0.89375 0.41 0  0.7906250000000001 0.06615386481594063 0  1.452769549894695 0.1548122580621249 0  1.369219062229598 0.07430640243902442 0  1.30625 0 0  1.07420695807087 0.07430640243902439 0  1.720943423819132 0.1714577452753128 0  1.157188124459196 0.205 0  1.304056576180868 0.1714577452753128 0  1.67579304192913 0.07430640243902437 0  1.209670467133757 0.136210026696477 0  0.4312800784902823 0.08036147352247747 0  0.8723959680194693 0.07066860609690805 0  1.025335513626278 0.1700681449722324 0  0.7945632284247136 0.1940204203251442 0  0.378125 0.3452261501101892 0  0.3307109909790086 0.2037165635083759 0  0.3009701032039409 0.2702970083403109 0  0.20625 0.41 0  1.58125 0 0  0.4812500000000001 0 0  0.9838963872396855 0.2722244191167347 0  0.06772484939107212 0.3260067317374387 0  0.20625 0 0  1.58125 0.41 0  1.631724228912893 0.3381867502687533 0  1.825608881788174 0.14499488549201 0  1.85625 0 0  1.44375 0 0  1.44375 0.41 0  1.85625 0.41 0  2.13125 0.41 0  0.7562500000000001 0.41 0  0.4812500000000001 0.41 0  1.16875 0 0  1.03125 0.41 0  1.03125 0 0  1.71875 0 0  1.99375 0 0  1.99375 0.41 0  0.9408708167433545 0.0651989315768642 0  1.340625 0.3489494290853124 0  1.134375 0.3489494290853123 0  1.700180620188976 0.3438659752031281 0  0.29668452290037 0.1318471691375986 0  0.3175441051360096 0.06496934809856265 0  0.06509151636162461 0.08140814015999148 0  2.135782184673599 0.07126652247502523 0  1.668441847249787 0.2129203728327609 0  1.295782514339747 0.2378437748815763 0  1.409375 0.3520314716057996 0  2.129248544730567 0.1906135162504124 0  2.060771381434487 0.1989445750470348 0  2.013252586573865 0.1496169464686054 0  1.942766402200229 0.1734448904596831 0  1.895522487186454 0.06076163953489683 0  2.069553871656643 0.06605731020975725 0  0.4670911801404742 0.2498408582391372 0  0.7622743084658112 0.1264100838268133 0  1.274680914880868 0.3520219391081363 0  0.3148669572599245 0.3331753056385887 0  1.614713220494657 0.09473434380863296 0  1.72990325744076 0.2380068107952482 0  1.356580098625191 0.2120393231351682 0  2.034370752044885 0.2668681600792073 0  1.51768709249349 0.3426260931494756 0  1.561883724969884 0.1650446847858835 0  1.197344062229598 0.2523725417393646 0  1.804085235518364 0.3468178408964637 0  1.817887819205233 0.2589243285818559 0  1.905897727272727 0.3485060975609756 0  0.7296439733931823 0.06337466644369745 0  0.4250935971865949 0.1394919578475796 0  0.3773030136511669 0.05130372097998036 0  1.192836486056382 0.3562350748565544 0  1.1029124365364 0.226143510831178 0  1.28257088594801 0.2944411014911587 0  0.1905185804731426 0.06029880676029167 0  1.474860187679412 0.2504218616229368 0  1.406767003493824 0.2829282258560709 0  0.5209826960981064 0.2830664557824064 0  0.5131119502780163 0.3617405848213254 0  0.1948220106098172 0.3081993407644811 0  1.845656689180403 0.1998310418452388 0  2.144958525570388 0.2909790873294231 0  2.2 0.15375 0  0.8833025251326762 0.2625402923007629 0  0.171875 0.3653875762360952 0  1.57794966442982 0.3540357145964566 0  0.446875 0.366068291212731 0  0.4272051715206439 0.2891929346190664 0  1.508991196088596 0.1421783375065625 0  1.50436820029908 0.06143401634903343 0  1.223857000523521 0.08235548624535324 0  0.6137904613287555 0.3066826366281556 0  1.153316824384777 0.1289850171317838 0  0.9751573703656133 0.327632618473408 0  2.148922302309752 0.1258841779285271 0  0.9281250000000001 0.3643758685795699 0  1.621993280276081 0.2841214267927899 0  1.550118654119087 0.2461998729100966 0  1.327182649291491 0.1216967252533594 0  0.9939955742738924 0.04663549843168518 0  1.753125 0.04556020050186112 0  1.271875 0.04556020050186116 0  0.9734326767716519 0.1506854560854393 0  0.103125 0.3675775577080512 0  1.94956388244759 0.1180512551534177 0  1.949997712993411 0.04965831614304109 0  0.717433898748555 0.295596016333797 0  1.771961817615021 0.1530278789497521 0  1.909246823951428 0.2812757146784527 0  0 0.35875 0  1.050632804931928 0.1226269704412814 0  0.05695108326502596 0.2024009637347154 0  1.948575539857022 0.2445328248721197 0  1.697271520964565 0.1233917627620729 0  1.065625 0.3689344961371042 0  1.085849084308977 0.3170853572226867 0  0.1015495998772944 0.04226029099983852 0  1.577403511714593 0.05463601888079143 0  1.751571320346033 0.3651102912045228 0  2.2 0.35875 0  0.7441773632462837 0.1786786606458751 0  0 0.05125 0  1.466879772203159 0.3611261772912453 0  0.6282230348858767 0.3577675483994025 0  1.990280163552011 0.3564754268533217 0  1.17471064520912 0.2990917256188288 0  0 0.25625 0  2.2 0.25625 0  2.2 0.05125 0  0 0.15375 0  1.853978576207987 0.35875 0  1.515638456102889 0.2882700110184686 0  2.150453692751374 0.2387066338105111 0  1.323782677156475 0.04897634338873398 0  1.409375 0.03715320121951221 0  1.406484531114799 0.1087852750766809 0  1.134375 0.03715320121951219 0  0.721875 0.3729363922161693 0  0.7941695928236929 0.3696489254637395 0  0.7934827162619036 0.3013409431456604 0  1.627401732573545 0.04552157221025036 0  0.9352049974617431 0.2507047965699472 0  0.8763260682738339 0.3611103317460093 0  2.045405893604797 0.1105340662939892 0  1.255408269734577 0.1577307500159216 0  2.028125 0.03707597992059326 0  1.003030137506755 0.3689344961371042 0  1.248258025468107 0.2565907092181813 0  1.203125 0.03661323374043041 0  0.4800125512335631 0.0549472816999725 0  2.072662025974815 0.2975086504196739 0  0.240625 0.3729825336867542 0  1.113252391110535 0.10238286244357 0  1.071052763974265 0.1885202618768825 0  0.8738809401657862 0.3106483608284829 0  0.6786819423003397 0.2677558482644021 0  1.887722846421017 0.1760882698830035 0  1.472640588990488 0.1118278026240017 0  0.5843750000000001 0.41 0  1.865937103925594 0.2604137786483804 0  1.463913572748262 0.2030442564990043 0  1.376426316059077 0.3186741374914345 0  0.1038643885363755 0.2162701735320032 0  0.1769473813227781 0.1070849728467114 0  0.458787839809176 0.171541653775316 0  0.240625 0 0  0.04179569703428024 0.2877217852556549 0  0.1258346557601885 0.2699740073054968 0  1.722140693354707 0.282908100935778 0  0.41206179117512 0.2448172567039922 0  0.3702471778075604 0.2265217604228704 0  0.3714881805374215 0.1786967818665642 0  1.77397096061971 0.2481483237422926 0  2.105123889160691 0.03743885948498647 0  1.001138337938679 0.229719337663998 0  1.051242910646791 0.2854826559431138 0  1.395420985247586 0.18
[...]
<PointData  Scalars="f_43"> 
<DataArray  type="Float64"  Name="f_43"  format="ascii">1.0791301836597419e-01  2.0432214306572202e-01  -9.8313798837489690e-12  -1.2059891874016497e-10  8.0353212562079571e-02  8.3529998935293157e-02  7.0137811390551655e-02  6.6414134903811997e-02  1.3683158352376890e-01  1.3834845912817006e-01  8.9232603982218661e-02  7.1108215323185633e-02  -4.7970834197923178e-03  -3.5846064626102532e-03  -7.4207450215250841e-03  -1.4357019788544799e-02  3.5305129449380093e-02  -6.3034932655058233e-03  -2.1079882554403146e-02  8.7346758704121036e-02  1.5899284948456685e-01  1.5172027478648564e-01  7.3906749464518584e-02  1.5280700043662089e-02  -1.9799803554098324e-02  -3.4085349618988153e-02  -2.4814464749526394e-02  -1.1155820846543246e-02  -1.4833492126005131e-03  1.1805866928938996e-01  2.4178877342309305e-03  5.7696238391434555e-02  4.7328959203588081e-02  1.0119573772951605e-01  -1.0931094223628141e-03  9.2753592705624208e-02  2.0173602277833542e-04  -3.2442564909927508e-03  3.3640565191593815e-03  5.4641968256951539e-03  7.6638570907765491e-03  9.3163161755002149e-03  1.6226350655750143e-03  3.0573761356019070e-03  3.7637612610686667e-03  4.7945164321353652e-03  5.0986211838323680e-03  1.7846915652044608e-03  -1.0380976883398610e-03  -9.3233408400043466e-11  2.5788818288197436e-03  8.0324700342724334e-02  1.6056166622358337e-03  1.8013138145200811e-03  -2.2974484816887852e-11  5.6050252860518875e-03  5.3510070277333821e-03  1.1926392574726753e-02  4.6298965731306719e-03  2.1164751108404354e-03  1.0924869008639060e-03  1.0637686066276686e-01  1.1385105331591301e-01  1.0688645079303107e-01  7.8235828672555824e-03  -1.3736151800411333e-04  -3.2967568203879474e-05  -8.8837670288512713e-04  2.8598877092855910e-03  6.8500690454533723e-03  1.1613240241723250e-03  9.1314730041737166e-02  9.9443021931664558e-02  5.6928983431531813e-03  1.6097651117556199e-03  2.4570387212142163e-03  8.6936876222531870e-04  3.4762573028353267e-03  1.2880949342408661e-03  4.7141849079190140e-03  1.0869707728640270e-01  1.2851890099190100e-01  1.2744731114296436e-03  7.1781439172241654e-02  2.3700401626376971e-03  8.6889516128010316e-04  3.0548603214547031e-03  2.2532224061391761e-03  3.2235423854485939e-03  5.2747421934417225e-03  -3.5092984361591507e-04  1.8623610166709399e-03  2.3187024702246267e-04  -4.7145176811282247e-11  3.1962089808880655e-03  1.0202465217351037e-02  1.1301304477572147e-02  -2.0478141940367526e-03  1.1897718739200937e-03  -2.2570932020938051e-04  3.8132717300976148e-03  2.3391577788173541e-02  5.7336522918279339e-03  1.1839946156910663e-03  3.2001898154592084e-03  1.1324681274628119e-01  9.0189108044958888e-02  1.2853348882945831e-01  1.0506773293846552e-01  1.6632620566231148e-03  1.0083074482231545e-03  -3.0437521705126759e-03  1.0451127257485818e-03  8.1765370040985273e-04  1.2791607222985918e-01  2.4263756755566394e-03  5.1785762621760290e-03  8.6705978689477686e-02  9.5147341754345402e-02  3.3973130340621015e-02  4.0947429766212233e-03  1.2080824653752197e-01  5.9698592715057581e-03  1.0830157928161072e-01  2.8115044410640748e-03  2.1268310722737547e-03  2.1675092240564528e-03  1.0273120009378205e-01  -2.9414466744434251e-03  9.6283649678985075e-02  1.2025564991703375e-03  4.3892148003653905e-04  -3.6984200553582050e-04  8.0465380247849421e-03  7.4141314441702718e-03  4.2587271967828300e-03  -7.9642489426358886e-04  5.7257307354037414e-03  -1.1679899901376688e-03  6.5017321650327308e-04  6.9575621935306989e-03  -2.7056347344808951e-03  1.1693411021469771e-01  2.9714298207052985e-04  7.4508123247289833e-04  2.6665262146372676e-04  8.5153291558399680e-02  8.8779117655298181e-02  8.7314848168715611e-02  1.0080790387248446e-01  9.9315272867189202e-03  1.0643759839508139e-01  1.9561424459128281e-03  1.0823909746905122e-01  1.0527868680919150e-01  3.9183064015670043e-03  4.9095034610161037e-03  4.3067669644567029e-03  3.7679010205861944e-03  1.2176304018765106e-02  1.2245206148491362e-03  4.7633267959216160e-03  8.8436112919587694e-04  1.6540285166793210e-03  6.8265388677598932e-02  -1.7194333127305832e-03  1.8033776497325751e-03  -6.6843841556024533e-04  5.8641233542745096e-03  2.3533907572322031e-03  2.7602457358195599e-03  2.2945025828681172e-04  2.4476369857225305e-03  3.1489823950774571e-03  5.8586133836775944e-03  8.7440867124796748e-02  1.0133592200805767e-01  1.2846798608930921e-01  7.6707368768927451e-04  5.8787295984110552e-03  1.6360307672180438e-03  1.4013464704880304e-03  8.7041626767528910e-04  1.7189175477586257e-03  2.2257576547034166e-03  3.0871973511137408e-03  3.3602589047288700e-03  1.5304394597255913e-03  8.0949339514480231e-02  -2.0082711475184470e-03  3.1848187444776018e-03  8.9038631398314000e-02  8.5735063734886964e-03  5.7693993468049256e-03  2.9393515312434925e-03  2.1293139262364550e-03  1.7723673296844587e-03  7.3173871436884724e-03  6.3839673653080505e-04  5.4226617097235426e-03  5.0535306516917445e-03  4.0413016905401240e-03  -2.1187868832435275e-03  1.1799201438448724e-01  1.0610651634160280e-01  3.3771358477020217e-03  1.5689339781771870e-04  3.0139640897739492e-03  1.0623118719788784e-01  1.9979047680825641e-03  1.5471423244344509e-03  4.5710244983892694e-02  5.8149604092645725e-02  9.2516555872357173e-02  4.3663019523393701e-03  6.9643893842476158e-04  -5.0034645266398473e-11  2.1266354866369473e-03  1.0325670943970337e-01  3.4982535495429283e-03  7.5155227653654136e-02  8.6544157660416898e-02  9.0576441259597167e-03  1.1834408946479488e-02  -1.8134051601197425e-03  -5.5426084255624065e-05  -2.2306600482435227e-03  1.9236507163710539e-03  6.1999951812072903e-04  1.2951423925386316e-03  4.6893148991910619e-03  3.3048734311620412e-03  2.6735502143132111e-03  -9.8721770411986314e-05  5.2335390840877608e-03  1.1777385445842533e-03  9.6352561045497597e-04  1.0744283027693576e-01  2.8735819757568751e-03  2.8043469307295335e-03  -3.0580350560501222e-03  5.0163651773525554e-03  3.8897339963548734e-03  1.0774987168897904e-01  -1.6382535624974624e-04  1.2072022803557698e-01  3.2367438980303903e-03  6.2214343476339213e-03  2.4825381100707961e-03  2.5130520518518570e-03  1.2263457482450456e-01  1.0119999720008538e-02  5.8449133872580609e-03  -1.2059891874016497e-10  -2.5351075220519910e-03  1.3723614347683891e-01  1.2228618152383462e-03  1.7025985249565358e-02  2.8091616653977249e-03  2.6336103057274011e-03  1.1212928229776842e-01  -9.3233408400043466e-11  -9.8313798837489690e-12  1.2376143696136906e-01  4.7888968044424735e-03  1.5758383547817250e-03  6.1978609242109984e-04  4.6542015009480436e-03  1.0588498068769743e-02  8.7368410352187779e-03  -1.5773669069995124e-03  4.2689160654281830e-03  1.2776616463603062e-03  5.9683581276729659e-04  8.5042178270371294e-03  2.1828156671002698e-03  1.0460964214356870e-03  1.8233050775286175e-03  -1.7154574226392306e-03  1.9836565479369396e-03  1.8965857109032565e-03  1.5263642095744981e-03  -1.2887616690561371e-03  1.0952439170104177e-01  1.6430253126044139e-03  9.5867048385464865e-02  -1.4434445969928780e-03  2.2061038423238003e-04  1.5994886038384387e-03  -1.0737522571779753e-02  3.7348282895735378e-03  1.0657375484727663e-02  3.4854807641964608e-02  4.4280146431081935e-03  4.7162978634409519e-03  1.9005307851630215e-03  1.2367645320024638e-01  1.0723514732536915e-01  1.1616488782864159e-01  1.0229741602379590e-01  1.0994079299340000e-01  1.0618849499908198e-01  5.9113359738235229e-03  9.1669632657855771e-02  9.1777155295327414e-02  9.2820659452988827e-02  5.4892241712743307e-03  1.1194064916804232e-03  1.6364339023548205e-03  1.8271108012008954e-03  4.7133111653357949e-03  2.2751513610907680e-03  8.2762980061492533e-02  7.7908796497691757e-03  1.2738691814808367e-01  1.3221211377045336e-01  1.6446433782628812e-03  1.4272176828604149e-03  9.2915561772267466e-02  5.2901669800989402e-03  2.7054057689434850e-03  8.9295391271249663e-02  8.4525159475717690e-02  8.5839774387105536e-02  4.7679686248645019e-04  1.3384059392277019e-03  1.6271370946152686e-03  1.5488966677054813e-03  5.5146646525692762e-04  4.7923273329702008e-03  9.8116097133394645e-03  4.6038913228470865e-03  3.9017592381921623e-02  1.4093814565562868e-01  1.0785784467571614e-01  2.5484707128868786e-03  2.4780245214408680e-03  -6.6591063547181419e-04  8.9503722432673655e-02  9.1409634295495965e-02  -2.1212713227376544e-03  1.2436231043933902e-02  6.1822193975341203e-03  2.9807781384297029e-03  -5.0358192582082583e-04  6.6768354082114715e-03  6.1798899252709814e-03  4.8500078572686950e-04  5.2133419271402034e-04  1.3057578837638845e-01  1.3336819041653228e-01  1.0793772063694276e-01  1.1371245349072087e-01  -5.7452264771109000e-04  -2.3824604240109501e-04  5.2818004869664816e-03  4.5133461546284677e-03  3.6792790262655055e-03  8.9066258489759548e-02  8.1858127098191083e-02  1.0123785428816333e-01  1.1042369848065900e-02  3.4483530962413677e-03  1.8059459011619098e-03  1.3766655145001699e-01  4.0580345122660615e-04  5.2201125218849934e-03  5.9234258496807064e-03  5.4889758100142407e-03  1.0955762905447811e-01  1.7266594126185723e-03  9.7091662725089650e-02  8.7104309361885651e-02  5.1015490497397595e-03  3.2490219648601470e-03  8.9780430072763887e-02  1.2923061872874969e-03  1.2095662721172096e-02  2.1226760511410332e-03  1.0302790695245070e-01  4.0392298512997018e-03  -8.2400943546265639e-04  1.0804470098660644e-01  1.0155223493866515e-01  7.8106377784517650e-02  -1.0309775443577745e-04  4.0203428792634322e-05  9.2401213404111506e-05  -1.5341832134574524e-03  4.7946612676975263e-04  1.2804241715282111e-01  2.8401986225185015e-03  8.0177276327440580e-02  9.6369884921192528e-02  -2.7629268966206718e-04  -4.2740295767888610e-03  2.3999109734354480e-03  5.3755783307657429e-02  4.2696117139523378e-03  9.6719970685084491e-02  3.7636804352645728e-03  3.4049102449247217e-03  3.0409265470540620e-03  8.7136119933576811e-02  1.0949161373188245e-02  1.1324720822038735e-03  6.0068509707930495e-03  -2.2922645716173579e-04  -1.1715996519617337e-03  7.3087056383703605e-03  7.3488238193425539e-03  8.5924178669089551e-02  1.1533888654128074e-01  2.1540913373993449e-03  7.4545343850885900e-03  8.7899517365393295e-02  1.7799854539116862e-03  1.2437691796367094e-01  4.7846873312389314e-03  -1.4918562412008496e-03  -3.1591777607356559e-03  2.3607952517412410e-02  6.8994417978250101e-03  -1.0593710442386956e-02  1.9446317323557557e-03  1.3159485916708655e-03  2.3656722202034892e-03  1.0812409348699602e-01  1.2647165497870927e-03  8.8439838794651410e-04  1.5000307415375621e-03  -4.6162734786231768e-05  1.1489376226988290e-02  -1.0745636804248651e-03  -1.0910104229769945e-03  -1.8594601940582847e-03  -1.5446413718452149e-04  5.5099729548049974e-03  -6.0804119965219351e-06  5.5557708989999897e-03  3.4189502391295504e-05  6.1899860790546610e-03  7.6830512283204214e-03  6.1944854790298778e-03  2.7758577518474034e-03  2.6751201536400000e-03  8.3643360372858092e-02  -2.0804941564177468e-03  -2.5377082048155327e-03  4.0979801813978266e-03  5.5689204968114581e-03  8.3134044043800949e-04  5.1684066207644149e-04  4.8553886819442203e-03  6.4487958111729129e-03  2.3547766296764016e-03  8.0819258650708575e-02  8.3777444261547915e-02  2.0477728265222289e-03  4.1673221841490669e-03  8.8021639385380462e-02  1.7282691657398445e-03  2.1793332827065512e-03  2.5083700937128190e-03  1.1667024732093852e-03  2.3146917647519838e-03  -1.7477418688970328e-03  1.0344748697480816e-03  4.5478921402831686e-04  5.7373979568066582e-03  1.1042315919875891e-02  9.6280333775081975e-04  3.9018458420709857e-04  1.2762004539981810e-03  -1.5892611106431125e-04  1.3256426325367376e-01  1.0905015243055892e-01  9.9222904300612508e-03  2.8634763368682262e-03  1.0358018272895493e-01  -4.2436515750135387e-03  4.2545158642013259e-04  9.5946795991060400e-04  3.0225630204509467e-03  1.1845460109393897e-03  -9.8352479659948922e-04  3.8663811051418812e-03  4.7273634991736079e-03  -1.7658084042227282e-03  1.4561544699427293e-03  -7.1390406378538376e-03  2.0945758831162679e-02  2.1384921475586189e-04  2.0560462139903170e-03  1.7007053229168656e-03  3.1314606748629914e-03  2.6576765120983124e-03  2.7138454927927115e-03  2.0435337051916383e-03  1.8530315145097696e-03  2.8032340026606850e-03  9.4320048010924057e-02  1.0379761395280568e-01  5.6984321124062985e-03  9.4944277289724555e-04  2.8891629911382711e-03  4.0735506704646790e-03  -5.8226421487528887e-04  -2.3265056372170123e-04  1.9711946111310688e-03  1.2905943316391514e-03  5.8475829785190935e-03  2.5109537965717168e-03  2.0879899816573446e-03  8.9125360377571627e-05  3.1564655823090038e-03  2.7213480417427873e-03  2.8266302235512176e-03  9.9977257826355040e-02  1.0605246663050071e-01  -1.6244874392942149e-03  6.9027030983234471e-03  4.1316180089000421e-04  1.2138378859888241e-03  3.8344388991654130e-03  -1.7914468026345167e-03  1.1194730214733264e-02  1.4940649973109461e-03  5.8863504285594339e-03  2.1315545357767059e-03  5.1835939270779294e-03  7.3647078785794688e-04  1.3035707309319924e-03  4.4056791677259713e-04  1.0748376598743095e-01  7.5478019896597387e-02  1.0455054450850541e-01  9.6633121094109625e-02  1.1781231976485260e-01  1.0812120406574367e-01  1.0452582169579723e-01  1.0810005751635265e-01  2.2020890361176211e-04  6.0216903762636410e-04  5.8995004593995606e-02  1.4093126642760563e-02  2.4241621375400571e-03  -1.2348409692359097e-03  1.4436902546971387e-03  8.7625894769468218e-03  2.7086044102879858e-03  1.8159060830959476e-03  -3.3481880357837405e-04  1.9854741098713356e-03  3.2565926679092336e-03  -6.3999391003406956e-06  5.8887785505098581e-03  9.1008831530419956e-02  7.1230949798064006e-02  4.9481985981101588e-02  -1.4213630237736785e-03  2.2140999290306677e-03  1.2515296908336129e-01  9.5828618671252412e-03  -2.3005858563886470e-03  1.1647137059039010e-03  2.8415776585871959e-02  9.0038599579455064e-02  2.3928337585432963e-03  2.6536725225955772e-03  8.1717604757913398e-02  3.3086153810260657e-03  2.1091309291778929e-03  1.1414621307331636e-03  3.2304149832602515e-03  1.0441541191926855e-03  1.3136558456179090e-03  5.8558879662448104e-03  4.2062638261890833e-03  1.1177824781722927e-03  5.8389993474816642e-03  4.1443917976008802e-03  5.6666708980370895e-03  1.4542183865799486e-03  3.7070348095516129e-03  1.6810668114765326e-03  9.4370808257932277e-03  1.6147183555950159e-03  1.3392870605051601e-03  1.0083788376921038e-01  6.7565580598051914e-02  1.7804756025219385e-03  -9.0690746760354430e-04  3.7883834193670101e-03  3.4400195294594063e-03  3.4026963135863867e-03  3.3505071540570770e-03  1.4765056595839217e-03  -7.9015438444646679e-04  2.0861740854188821e-03  5.4031519201674216e-03  1.0247235892921329e-01  5.0568863117529256e-03  5.8776532093609843e-03  4.6072887793551709e-03  2.7055460408364953e-03  1.0712555466210406e-01  3.9829205670879159e-04  -3.2917962500307070e-04  8.7673636785933502e-03  8.4332763430081378e-02  -2.1709363570004546e-02  9.6670532173866713e-03  7.9235487657579231e-03  4.0176095887660621e-03  1.2759432959334482e-01  3.2763200775741868e-03  -2.3507071404202267e-03  4.1232733556478456e-03  2.2552604432619135e-03  1.0663415208088851e-01  1.1322618697751566e-01  6.5460894409732169e-03  4.7567977908806857e-03  1.3207929703367299e-01  1.0764682931725902e-01  4.5152970573013014e-03  1.7091395591186948e-03  3.5173065805312212e-03  -2.0667685769374042e-03  2.1272789217212595e-03  1.0536527837947080e-02  4.9612559172224320e-03  3.3061833014824773e-03  5.7727085888178639e-03  1.1270453259316156e-01  9.9723410790565542e-02  -2.0324475447980922e-03  3.7137819173826492e-04  2.0468869934605629e-03  -4.8350695315186400e-04  6.2250051292615785e-03  1.1825488892700001e-02  1.0039602523094262e-02  5.4283464642490955e-03  4.9226533370447393e-03  1.3199433277599408e-03  1.2048295946634282e-02  3.0420457002597015e-03  1.5768646395630309e-01  1.0782228500582422e-01  8.7742797232399691e-03  3.3564278574153405e-03  -5.2057006971559551e-03  1.0126538827714443e-01  3.1655704547690366e-03  2.5795464232255629e-03  1.0946709780393341e-01  8.3421927581779617e-02  2.5501482823982007e-03  1.0981806634431635e-01  8.8742188289090834e-02  2.2079104163431058e-03  -8.7831371013209671e-03  1.5942399927545356e-02  5.0430899765001064e-02  -4.8692888905212188e-04  4.9873716786698339e-03  1.0389624151716508e-03  1.1849814425112621e-03  1.2045704296876038e-01  4.1153714145731645e-03  2.4876792665765707e-04  7.6467364003702945e-03  4.3469701654150501e-03  -9.3233408400043466e-11  9.0087125628372788e-02  1.9800344246177696e-03  2.2091627674590297e-03  -3.8875710127637839e-04  1.6861673595407777e-03  5.3167989623610131e-03  1.0952485284179360e-01  1.2470310218460755e-01  4.2576113664227489e-04  1.7360165291916729e-03  8.5768259299900979e-02  9.9449359820341379e-02  1.2185206095688829e-01  3.9855660860228723e-03  3.3705751466968645e-03  2.9327811167157748e-03  1.1405777651430796e-03  3.2445086289081735e-03  1.1690297316328582e-02  4.5522517645514736e-03  1.8655552748171982e-03  1.1358244459237239e-01  2.0900252663039682e-03  1.9785191283252048e-03  1.8477974040759420e-03  4.6562853575718419e-02  9.0322321155556926e-02  8.2178014613304318e-02  4.0176627309513229e-03  1.1203494245303355e-01  1.4565063008930920e-02  6.1927041819997202e-03  -4.9246292284117928e-03  6.7902547961690846e-04  7.0901851905004845e-04  -5.3926210402446167e-04  -4.7145176811282247e-11  1.3384052777790900e-01  8.7595213256223714e-02  2.8114689347357620e-03  2.2201535116330154e-03  1.8998124798648723e-03  2.8723287374394653e-03  5.6735780861660477e-03  1.0231550503685111e-01  9.2822769009420145e-02  1.6049755016892056e-02  2.8511458215408863e-03  6.3912819951195604e-02  -1.7143560455895092e-04  2.5649295611647228e-03  8.7996887187427528e-03  5.0665425017217217e-03  3.0784740363881551e-02  7.3376087892215499e-03  4.3636876838258551e-03  5.7215308981247931e-03  8.0952224103700635e-04  8.7991407240029754e-04  3.6720588718684174e-04  8.0039997266376783e-02  5.2955981529166515e-02  4.2105626023286567e-03  2.8371615035685123e-03  -5.8751410415829632e-03  9.0725384896346670e-04  3.2817016285019477e-03  5.5604961307403932e-03  4.8638624029698112e-03  1.1640860623151644e-01  8.7924009602856536e-03  -2.6408808807722862e-03  -1.6009100889186551e-03  1.0789847710835263e-01  2.4162815821094441e-03  8.3550283836358680e-02  -2.7979417199163492e-03  1.0294201687779687e-01  3.4664279048673995e-03  1.2374645897245910e-03  1.0202942702273662e-03  8.9175644950210187e-02  -9.7436432827522777e-04  -1.4844084533909412e-04  -9.3233408400043466e-11  2.0730698892246248e-03  1.9981957884624025e-03  3.3055858211554585e-03  4.3189162401829151e-03  9.0115528868659880e-02  8.7775690693740707e-02  3.1699140811251737e-03  -3.7986480285266363e-04  3.0282221685142860e-03  1.3824087815093511e-03  3.6425221495086624e-03  3.1048952453336491e-03  4.2484655111469502e-03  7.3846311533576320e-02  2.4104784363155958e-03  -1.8002329046974102e-03  -2.0432135954096230e-03  6.8986173939973557e-03  2.6371561068343039e-03  2.1868317750206130e-03  2.3051609148972605e-03  4.7169347171717108e-03  5.6590043266937151e-03  3.0799564483413146e-03  2.9485625415686385e-03  1.0022467182506069e-01  1.1007337722848790e-01  5.9225619577923383e-03  1.1695622146441771e-01  1.0609849198788326e-01  5.1309523436787125e-03  1.4261522782985298e-03  5.5639704604105403e-04  7.0968959631187748e-05  3.0936066652440856e-03  8.7408336658262092e-04  1.1016790767246526e-03  7.7558815543569054e-02  3.7400234718919251e-03  3.2877701520344811e-03  -8.0574286177374657e-04  8.1190880497547815e-02  -1.2169945173957316e-03  5.8302232362214806e-03  -2.4369399568129140e-03  1.1949604709858756e-01  1.0846700930166410e-01  3.8957384581321856e-03  2.1514796489362164e-03  4.2564516592825388e-03  9.2420124631549198e-03  9.0111347340211534e-03  1.0775818715997321e-01  5.3757461432381980e-03  9.2728904222654424e-02  2.3263306975612854e-03  6.9729065163353129e-02  8.0990264044181345e-04  4.6369654696982810e-03  5.7774339841132121e-03  1.0695160437148205e-01  2.8509766670360127e-03  1.3384685645482545e-03  1.0155839164951177e-