<?xml version="1.0"?>
<VTKFile type="UnstructuredGrid"  version="0.1"  >
<UnstructuredGrid>
<Piece  NumberOfPoints="1404" NumberOfCells="2604">
<Points>
<DataArray  type="Float64"  NumberOfComponents="3"  format="ascii">0 0.41 0  0 0 0  2.2 0 0  2.2 0.41 0  0.2353553390593274 0.2353553390593274 0  0.25 0.2 0  0.2353553390593274 0.1646446609406726 0  0.2 0.15 0  0.1646446609406726 0.1646446609406726 0  0.15 0.2 0  0.1646446609406726 0.2353553390593274 0  0.2 0.25 0  0.6923879532511287 0.188268343236509 0  0.7 0.15 0  0.6923879532511287 0.1117316567634909 0  0.6707106781186547 0.07928932188134523 0  0.6382683432365089 0.05761204674887133 0  0.6 0.04999999999999999 0  0.5617316567634909 0.05761204674887134 0  0.5292893218813453 0.07928932188134524 0  0.5076120467488713 0.111731656763491 0  0.5 0.15 0  0.5076120467488713 0.188268343236509 0  0.5292893218813453 0.2207106781186547 0  0.561731656763491 0.2423879532511287 0  0.6 0.25 0  0.6382683432365089 0.2423879532511287 0  0.6707106781186547 0.2207106781186547 0  1.1 0 0  0 0.205 0  1.1 0.41 0  0.55 0 0  0.55 0.41 0  0.275 0 0  0.8250000000000001 0 0  0.275 0.41 0  0.8250000000000001 0.41 0  0.6875 0 0  0.61875 0 0  1.65 0.41 0  1.65 0 0  1.375 0 0  1.375 0.41 0  1.925 0 0  1.925 0.41 0  1.5125 0.205 0  1.7875 0.205 0  0.9625000000000001 0.205 0  1.2375 0.205 0  2.2 0.205 0  1.99375 0.2152743902439024 0  0.4125 0.41 0  2.0625 0 0  2.0625 0.41 0  2.2 0.3075 0  1.7875 0.41 0  1.375 0.1486128048780488 0  1.5125 0 0  1.7875 0 0  1.5125 0.41 0  0.9625000000000001 0.41 0  0.4125 0 0  0.1375 0 0  0.1375 0.41 0  0.6875 0.41 0  0.9625000000000001 0 0  1.2375 0 0  1.1 0.1486128048780488 0  1.2375 0.41 0  1.65 0.1486128048780487 0  0.823495464168302 0.2603780552348366 0  0.3738707794507017 0.2720196349488618 0  0.3662291281331582 0.1311456406657909 0  1.676715909090909 0.2793064024390244 0  1.126715909090909 0.2793064024390244 0  1.348284090909091 0.2793064024390244 0  0.8287581077665108 0.1302150898054257 0  1.894702181800738 0.1282910975492754 0  2.092797818199262 0.1282910975492754 0  1.85625 0.3075 0  0 0.3075 0  0 0.1025 0  2.099172119769978 0.25625 0  0.4752414543992246 0.3180372603390748 0  1.99375 0.08395950269330846 0  1.459960956013612 0.3075 0  1.569025960719943 0.2986889805672169 0  1.03125 0.3278689922742084 0  1.959375 0.3126371951219512 0  1.749222215368287 0.1025 0  1.275777784631713 0.1025 0  0.9228016959331474 0.3075 0  1.000777784631713 0.1025 0  2.2 0.1025 0  1.225938124459196 0.3075 0  1.550777784631713 0.1025 0  1.44375 0.07430640243902442 0  1.16875 0.07430640243902439 0  0.7562500000000001 0.3358727844323386 0  0.89375 0 0  1.899250267340833 0.2229966846119207 0  0.61875 0.41 0  1.766482954545455 0.2934032012195123 0  1.046078563095834 0.2389031808701145 0  1.421109702350723 0.2261157654379721 0  0.07567171807980319 0.25625 0  0.2511897295290552 0.3235829392832554 0  0.07655002503762308 0.1488653460959645 0  0.1377245246847496 0.3206030474919778 0  0.6694099692696568 0.3242771941727899 0  0.9168971191497528 0.1295727156104653 0  0.7562500000000001 0 0  2.118919042110979 0.3422084711244843 0  2.13125 0 0  0.06875000000000001 0 0  1.30625 0.41 0  1.597888256393107 0.2173787389261347 0  0.34375 0.41 0  0.2493272016354703 0.08091360081773515 0  0.5588896233436766 0.3264056208677571 0  1.829299675393195 0.07400700849299596 0  0.1334079128307869 0.08523463035786674 0  1.71875 0.41 0  0.06875000000000001 0.41 0  1.16875 0.41 0  2.038220665644273 0.332420740103091 0  0.8810647413215221 0.2027360103977071 0  0.34375 0 0  0.7453891198966415 0.2471459041008237 0  0.42112093004955 0.1988123139090554 0  0.8314023090855964 0.3351170841770613 0  0.89375 0.41 0  0.7906250000000001 0.06615386481594063 0  1.452769549894695 0.1548122580621249 0  1.369219062229598 0.07430640243902442 0  1.30625 0 0  1.07420695807087 0.07430640243902439 0  1.720943423819132 0.1714577452753128 0  1.157188124459196 0.205 0  1.304056576180868 0.1714577452753128 0  1.67579304192913 0.07430640243902437 0  1.209670467133757 0.136210026696477 0  0.4312800784902823 0.08036147352247747 0  0.8723959680194693 0.07066860609690805 0  1.025335513626278 0.1700681449722324 0  0.7945632284247136 0.1940204203251442 0  0.378125 0.3452261501101892 0  0.3307109909790086 0.2037165635083759 0  0.3009701032039409 0.2702970083403109 0  0.20625 0.41 0  1.58125 0 0  0.4812500000000001 0 0  0.9838963872396855 0.2722244191167347 0  0.06772484939107212 0.3260067317374387 0  0.20625 0 0  1.58125 0.41 0  1.631724228912893 0.3381867502687533 0  1.825608881788174 0.14499488549201 0  1.85625 0 0  1.44375 0 0  1.44375 0.41 0  1.85625 0.41 0  2.13125 0.41 0  0.7562500000000001 0.41 0  0.4812500000000001 0.41 0  1.16875 0 0  1.03125 0.41 0  1.03125 0 0  1.71875 0 0  1.99375 0 0  1.99375 0.41 0  0.9408708167433545 0.0651989315768642 0  1.340625 0.3489494290853124 0  1.134375 0.3489494290853123 0  1.700180620188976 0.3438659752031281 0  0.29668452290037 0.1318471691375986 0  0.3175441051360096 0.06496934809856265 0  0.06509151636162461 0.08140814015999148 0  2.135782184673599 0.07126652247502523 0  1.668441847249787 0.2129203728327609 0  1.295782514339747 0.2378437748815763 0  1.409375 0.3520314716057996 0  2.129248544730567 0.1906135162504124 0  2.060771381434487 0.1989445750470348 0  2.013252586573865 0.1496169464686054 0  1.942766402200229 0.1734448904596831 0  1.895522487186454 0.06076163953489683 0  2.069553871656643 0.06605731020975725 0  0.4670911801404742 0.2498408582391372 0  0.7622743084658112 0.1264100838268133 0  1.274680914880868 0.3520219391081363 0  0.3148669572599245 0.3331753056385887 0  1.614713220494657 0.09473434380863296 0  1.72990325744076 0.2380068107952482 0  1.356580098625191 0.2120393231351682 0  2.034370752044885 0.2668681600792073 0  1.51768709249349 0.3426260931494756 0  1.561883724969884 0.1650446847858835 0  1.197344062229598 0.2523725417393646 0  1.804085235518364 0.3468178408964637 0  1.817887819205233 0.2589243285818559 0  1.905897727272727 0.3485060975609756 0  0.7296439733931823 0.06337466644369745 0  0.4250935971865949 0.1394919578475796 0  0.3773030136511669 0.05130372097998036 0  1.192836486056382 0.3562350748565544 0  1.1029124365364 0.226143510831178 0  1.28257088594801 0.2944411014911587 0  0.1905185804731426 0.06029880676029167 0  1.474860187679412 0.2504218616229368 0  1.406767003493824 0.2829282258560709 0  0.5209826960981064 0.2830664557824064 0  0.5131119502780163 0.3617405848213254 0  0.1948220106098172 0.3081993407644811 0  1.845656689180403 0.1998310418452388 0  2.144958525570388 0.2909790873294231 0  2.2 0.15375 0  0.8833025251326762 0.2625402923007629 0  0.171875 0.3653875762360952 0  1.57794966442982 0.3540357145964566 0  0.446875 0.366068291212731 0  0.4272051715206439 0.2891929346190664 0  1.508991196088596 0.1421783375065625 0  1.50436820029908 0.06143401634903343 0  1.223857000523521 0.08235548624535324 0  0.6137904613287555 0.3066826366281556 0  1.153316824384777 0.1289850171317838 0  0.9751573703656133 0.327632618473408 0  2.148922302309752 0.1258841779285271 0  0.9281250000000001 0.3643758685795699 0  1.621993280276081 0.2841214267927899 0  1.550118654119087 0.2461998729100966 0  1.327182649291491 0.1216967252533594 0  0.9939955742738924 0.04663549843168518 0  1.753125 0.04556020050186112 0  1.271875 0.04556020050186116 0  0.9734326767716519 0.1506854560854393 0  0.103125 0.3675775577080512 0  1.94956388244759 0.1180512551534177 0  1.949997712993411 0.04965831614304109 0  0.717433898748555 0.295596016333797 0  1.771961817615021 0.1530278789497521 0  1.909246823951428 0.2812757146784527 0  0 0.35875 0  1.050632804931928 0.1226269704412814 0  0.05695108326502596 0.2024009637347154 0  1.948575539857022 0.2445328248721197 0  1.697271520964565 0.1233917627620729 0  1.065625 0.3689344961371042 0  1.085849084308977 0.3170853572226867 0  0.1015495998772944 0.04226029099983852 0  1.577403511714593 0.05463601888079143 0  1.751571320346033 0.3651102912045228 0  2.2 0.35875 0  0.7441773632462837 0.1786786606458751 0  0 0.05125 0  1.466879772203159 0.3611261772912453 0  0.6282230348858767 0.3577675483994025 0  1.990280163552011 0.3564754268533217 0  1.17471064520912 0.2990917256188288 0  0 0.25625 0  2.2 0.25625 0  2.2 0.05125 0  0 0.15375 0  1.853978576207987 0.35875 0  1.515638456102889 0.2882700110184686 0  2.150453692751374 0.2387066338105111 0  1.323782677156475 0.04897634338873398 0  1.409375 0.03715320121951221 0  1.406484531114799 0.1087852750766809 0  1.134375 0.03715320121951219 0  0.721875 0.3729363922161693 0  0.7941695928236929 0.3696489254637395 0  0.7934827162619036 0.3013409431456604 0  1.627401732573545 0.04552157221025036 0  0.9352049974617431 0.2507047965699472 0  0.8763260682738339 0.3611103317460093 0  2.045405893604797 0.1105340662939892 0  1.255408269734577 0.1577307500159216 0  2.028125 0.03707597992059326 0  1.003030137506755 0.3689344961371042 0  1.248258025468107 0.2565907092181813 0  1.203125 0.03661323374043041 0  0.4800125512335631 0.0549472816999725 0  2.072662025974815 0.2975086504196739 0  0.240625 0.3729825336867542 0  1.113252391110535 0.10238286244357 0  1.071052763974265 0.1885202618768825 0  0.8738809401657862 0.3106483608284829 0  0.6786819423003397 0.2677558482644021 0  1.887722846421017 0.1760882698830035 0  1.472640588990488 0.1118278026240017 0  0.5843750000000001 0.41 0  1.865937103925594 0.2604137786483804 0  1.463913572748262 0.2030442564990043 0  1.376426316059077 0.3186741374914345 0  0.1038643885363755 0.2162701735320032 0  0.1769473813227781 0.1070849728467114 0  0.458787839809176 0.171541653775316 0  0.240625 0 0  0.04179569703428024 0.2877217852556549 0  0.1258346557601885 0.2699740073054968 0  1.722140693354707 0.282908100935778 0  0.41206179117512 0.2448172567039922 0  0.3702471778075604 0.2265217604228704 0  0.3714881805374215 0.1786967818665642 0  1.77397096061971 0.2481483237422926 0  2.105123889160691 0.03743885948498647 0  1.001138337938679 0.229719337663998 0  1.051242910646791 0.2854826559431138 0  1.395420985247586 0.18
[...]
<PointData  Scalars="f_43"> 
<DataArray  type="Float64"  Name="f_43"  format="ascii">1.0842231795261287e-01  2.0487413397489093e-01  9.4911474037556840e-11  3.3418755966463363e-10  8.0869880486810292e-02  8.4152493191101532e-02  7.0688898384001331e-02  6.7053997876888205e-02  1.3752503677586639e-01  1.3878640363883604e-01  8.9583182291015487e-02  7.1528311771510478e-02  -4.4497726058670486e-03  -4.4090166000800507e-03  -8.7073394648593417e-03  -1.5643936444753152e-02  3.4278185707442149e-02  -6.7260328381536123e-03  -2.1123607341180340e-02  8.7052031012688574e-02  1.5883168662275290e-01  1.5276938739742377e-01  7.5413701076426531e-02  1.5811560815997553e-02  -1.9844662649750985e-02  -3.3836117974095470e-02  -2.4118849277573139e-02  -1.0528592356384212e-02  4.3142016686404739e-03  1.1854822665054422e-01  2.1709958028238575e-03  5.7467000680507384e-02  4.8045623397441152e-02  1.0183635639823922e-01  -2.4280534195572391e-03  9.3233098218116719e-02  1.8790410376843228e-03  -4.0680395980659438e-03  2.7803837683709237e-03  7.2630893225253748e-03  7.2108647594273855e-03  1.3228985449971560e-02  7.8822902880259903e-03  3.5923610216784373e-03  3.6394920673663215e-03  8.9753188795314593e-03  5.4241634095654988e-03  -4.7837680503484744e-03  9.0698251364755896e-03  1.8547748319732439e-10  2.7132396916515556e-03  8.0829696890408712e-02  1.7995502590591446e-03  1.8145329507140351e-03  2.9062286442880802e-10  5.4731178880364339e-03  1.1787970116028329e-02  9.5219542892117683e-03  5.3756080403249504e-03  8.6042762039983348e-03  2.6478227105547853e-03  1.0680216418164921e-01  1.1444318491785607e-01  1.0742390462258085e-01  8.9504672236317227e-03  -3.6288488916960552e-03  1.5389625828602498e-02  -2.0427966786094715e-03  3.2860506640132563e-03  7.2239179166098226e-03  1.7190037012864393e-03  9.1948779892901802e-02  1.0022579047077423e-01  6.9100156786532025e-03  2.1382710877835684e-03  7.8710869168988635e-03  -8.1482607491582067e-04  3.9946402451125559e-03  1.4068586022015297e-03  4.5460897714338236e-03  1.0919077185052335e-01  1.2904181103404269e-01  1.3258811574895044e-03  7.2368754391837667e-02  2.7000308987655880e-03  8.8841537839299545e-03  8.1946917177566601e-03  3.2243869325523540e-03  3.1774594284115455e-03  5.8846031605837195e-03  1.4950949526386410e-02  1.6398934794901025e-03  -5.5538338133386657e-03  2.3041475130431007e-10  2.6287643067528254e-03  8.7193612613010243e-03  1.1085654800222789e-02  1.0106581374079791e-02  2.3945884083291565e-03  -2.9140451399450339e-03  3.9584316683509025e-03  2.4325746798949013e-02  5.7377024718055234e-03  -3.3456515851075621e-03  9.5684391803910872e-03  1.1373056026159716e-01  9.0701562768383051e-02  1.2905382583479313e-01  1.0558258293100820e-01  2.6702011005284802e-03  -3.3114080585831193e-03  -3.8171087193817638e-03  1.0688920881106044e-03  8.9807482585682141e-04  1.2847941958591425e-01  5.8647131367248863e-03  7.9022189515912458e-03  8.7177444362684944e-02  9.5797346618764767e-02  3.4885063439341904e-02  4.8379631118647456e-03  1.2139058486820054e-01  6.3849821095840762e-03  1.0882149711182575e-01  1.9223858888394625e-03  2.1361976603774153e-03  8.4045632454016092e-05  1.0332055922890611e-01  -1.9243117028898103e-03  9.7284453628532233e-02  2.5104715232617384e-03  2.2419472849244840e-03  -1.3285694270724279e-03  1.0190030834132195e-02  1.3290197010233869e-02  1.5197667878561617e-02  -7.0370465647743620e-04  6.2839900548057699e-03  4.2791019676406495e-03  1.2017818010912762e-02  6.8583707839473184e-03  1.1891872881167498e-02  1.1727318749998271e-01  -1.8643415047651908e-03  -7.6280212662469928e-03  6.9771810378698633e-04  8.5640244867437737e-02  8.9595779550413618e-02  8.7860800519115295e-02  1.0131973744416305e-01  8.2570660514992168e-03  1.0656709682222210e-01  -1.3743724829454076e-03  1.0873992593689888e-01  1.0590498046161748e-01  8.0419001518502228e-03  7.4793084640485232e-03  4.9013983289545359e-03  4.4827979647022974e-03  1.1169800060010521e-02  8.7028224986677727e-03  4.5539427431332867e-03  9.0484019479024369e-04  3.0315371119003678e-03  6.8842000734062769e-02  1.1517375809401442e-02  2.6581847355387055e-03  -1.7563386036334376e-03  6.2743453538652034e-03  2.6977646811592476e-03  2.7247573226666291e-03  -3.3987869178132078e-03  6.9028039884868591e-03  2.2278214066614416e-03  6.6209353901442031e-03  8.8109977905289683e-02  1.0199355768827634e-01  1.2900780088945224e-01  8.4153052668187818e-04  6.9931682458880982e-03  8.0064612960756443e-03  8.4209422685685847e-03  9.2812138669481935e-04  1.8281845243451084e-03  2.4482999066912812e-03  3.3741598331242947e-03  3.9746054190651029e-03  1.7085598674460105e-03  8.1813974132430647e-02  -2.9534855449684151e-03  4.3153142902180959e-03  8.9547163601795862e-02  7.7218943716900867e-03  6.1984513653201767e-03  9.9619697266201193e-03  2.1829333011900267e-03  8.5854803242601009e-03  8.4393340846330902e-03  4.2433633328963563e-03  5.2490315956582392e-03  5.0422145872282935e-03  3.8918823656671924e-03  -3.0783752469583201e-03  1.1874383212991270e-01  1.0664590574553816e-01  2.0415425051356342e-03  -4.6900288635811851e-04  5.0587905601854341e-03  1.0685713076661463e-01  9.1067098848788049e-03  8.8298775873829876e-03  4.6496142838619130e-02  5.8804377486378706e-02  9.3011825357830424e-02  4.6559129912346715e-03  7.2332418313260296e-04  -2.0290250792108378e-10  6.4144458201602068e-04  1.0378808602752738e-01  8.0701142479322249e-03  7.5688804720911343e-02  8.7132218917162746e-02  9.3178935503156913e-03  9.6833732642850404e-03  1.4259471778673673e-02  8.2322012875749614e-04  6.1325363985960538e-03  2.9080899413221205e-03  6.7037789396019243e-04  3.2674411304466321e-03  7.5960225596105914e-03  8.4459251346933051e-03  1.3635938630169467e-02  -3.4071518491856126e-03  5.8257399070031184e-03  1.5473433845677589e-02  -6.2199097547709697e-03  1.0796746363162527e-01  3.2779144798176707e-03  3.2675296180298252e-03  -2.0990811507625982e-03  5.6062818455022779e-03  3.8374255729230573e-03  1.0825461877612505e-01  -5.5702743759220236e-03  1.2121125539448567e-01  3.3107551164081911e-03  6.5756400402735013e-03  3.0086123663745075e-03  2.6941130335885726e-03  1.2320882254245569e-01  8.3278911819241914e-03  5.9488937026935217e-03  3.3418755966463363e-10  -2.4729216156884029e-03  1.3777713170819206e-01  8.7217136023260942e-03  1.8011850006594693e-02  2.7705842338369099e-03  2.0633759958045357e-03  1.1261542252932273e-01  1.8547748319732439e-10  9.4911474037556840e-11  1.2426556488527854e-01  4.5836730283303501e-03  8.6883887178630242e-03  6.5171977174872605e-04  1.4710408327300094e-02  1.2192340661618270e-02  1.1802435601969955e-02  7.3137643817051904e-03  5.4670805746651740e-03  2.8164040438072931e-03  1.5720989292265760e-03  7.5498633222379511e-03  -1.7901731281404398e-03  2.9193081784686030e-03  2.0258319066868932e-03  1.2732789583319639e-02  2.2510915328152544e-03  3.3918501686413180e-03  5.3829766278955388e-03  1.3538215340512952e-02  1.0959735135349524e-01  1.6795030428567038e-03  9.6375507684741471e-02  1.9361560770689186e-03  -5.0509480967679899e-03  1.9349625136252345e-03  -1.0003755328428834e-02  4.0967393654011679e-03  1.0177488136821273e-02  3.5680665187326065e-02  4.4070340511601731e-03  9.5440660677099613e-03  8.0570712130991259e-03  1.2415969191933086e-01  1.0786429188001588e-01  1.1722664139304563e-01  1.0293670607735488e-01  1.1042988469247556e-01  1.0665769551377717e-01  6.3193034997224770e-03  9.2508236539951091e-02  9.2644871267365064e-02  9.3755433093012236e-02  5.6218308597491716e-03  1.2423237535780505e-03  -4.9745343088831492e-03  9.8620706359664034e-04  1.0437299389653138e-02  2.2706403522412526e-03  8.3240721664089454e-02  7.8748251165826812e-03  1.2790659374690308e-01  1.3278738443571581e-01  5.7288414449257997e-04  -1.3828887041368416e-03  9.2874933881091970e-02  5.1342930703647677e-03  2.7606134432866573e-03  9.0097080896526655e-02  8.5179133022315834e-02  8.6475819155228534e-02  4.9297280383318973e-04  1.3609373262893302e-03  1.6433805791858543e-03  -3.7949701441491596e-03  -4.8089690910034051e-03  7.6708553109943213e-03  1.0858115126549800e-02  5.3118733207717034e-03  3.9825948005946278e-02  1.4123397856579520e-01  1.0817761015336115e-01  2.5586229995532006e-03  9.1604578671017050e-03  -6.2871626694819630e-05  8.9975660427553519e-02  9.1909240372874304e-02  8.7855655704191186e-03  1.0282062668571483e-02  7.4744462101101932e-03  8.3646040893985002e-03  -1.8404621480675692e-03  6.7395009469812771e-03  6.4185289845942461e-03  5.3177620438412602e-04  5.3564659081999143e-04  1.3112975221231632e-01  1.3391997198915534e-01  1.0844612532653598e-01  1.1431410882292840e-01  -2.5179265397331104e-03  -1.6112266415177121e-03  7.4330241035361067e-03  5.2482618807552861e-03  4.3377644675128470e-03  8.9589644269526703e-02  8.2460126189487559e-02  1.0189421182663648e-01  8.8522926420562809e-03  3.3521089588023473e-03  1.7693043364210986e-03  1.3819551492408055e-01  -1.2162710380332071e-03  5.0148270437110369e-03  6.1476278935113119e-03  7.0840043936755848e-03  1.1014202697881249e-01  1.8805947782862336e-03  9.7798972843242155e-02  8.7588630293414849e-02  8.4733979236250364e-03  2.9826527134500578e-03  9.0462543085303299e-02  1.3904475121432661e-03  1.0553217125134660e-02  -2.0307511975221500e-03  1.0367390195010565e-01  7.9800229620202792e-03  -1.7109444358348459e-03  1.0854200978574360e-01  1.0217545675211860e-01  7.7990358018374270e-02  -3.3947855169925334e-03  -2.6333634653326059e-03  2.6173074790160600e-03  2.7463559796514414e-03  5.1352902079046178e-04  1.2858547081890651e-01  6.4026068149231835e-03  8.0683003538754752e-02  9.6889432320113059e-02  8.9696433139679584e-04  -3.6879000007749587e-03  2.7575296788488824e-03  5.4515021414443435e-02  4.0956776274421606e-03  9.7192319681968314e-02  4.4693212904953275e-03  4.0370016639648251e-03  3.5479188209247923e-03  8.8233000102731995e-02  9.4437979245112370e-03  -6.0220802599943601e-05  6.3611419970256069e-03  -4.0281922372640104e-03  2.8776020797440104e-03  7.0010996022149144e-03  7.1758268264181134e-03  8.6551361025633086e-02  1.1582478818810155e-01  2.1524853195627187e-03  1.1008544894759916e-02  8.8422553687968738e-02  2.8832818398572451e-03  1.2488127560212552e-01  5.4982167901238650e-03  -4.3684632319452096e-04  -3.8949329905764748e-03  2.4575117745524618e-02  9.4449117972547035e-03  -9.7880704958046242e-03  2.1910923473492886e-03  9.0737119408823407e-03  8.8099834011382688e-03  1.0862338720967447e-01  1.7893636495028170e-03  2.6625275501840576e-03  3.3027374961955127e-03  -7.6952158508374210e-04  9.1983549879294142e-03  7.3893864454688003e-04  -1.7793869001597499e-03  -2.8149713378770010e-03  -1.4274247427299637e-03  5.9502857461059813e-03  1.0104149409509463e-02  6.1154098965532965e-03  1.3780731794612987e-02  1.2776628141268802e-02  1.3701409529302336e-02  6.7405764774604044e-03  1.2226145524692762e-02  2.9659955448733794e-03  8.4178903083450274e-02  1.4079463806592590e-02  1.1644608350351833e-02  7.8261685672802086e-03  7.0343260253073825e-03  -1.6446681033833728e-03  -2.7974679236838032e-03  7.5256267375354464e-03  7.9585422924116963e-03  8.4727409895895694e-03  8.1316894712458843e-02  8.4259842103574262e-02  1.7337384981722047e-03  4.9293574662672805e-03  8.8533482724983223e-02  1.8034217845739149e-03  2.2743413327187844e-03  1.4758665400688183e-02  1.2029089356596534e-03  3.6704940038761709e-03  -8.3912186789663235e-04  1.0901684194437617e-03  4.8272363569163616e-04  5.6743581108093383e-03  8.9038503379707604e-03  -6.2815126387939591e-03  -7.0519681854265704e-03  -6.7982185926720087e-03  -2.1601798755748348e-03  1.3310051693071789e-01  1.0966018586964907e-01  1.2107905335854130e-02  2.7649744026525501e-03  1.0421643415203008e-01  -5.2328794910322680e-03  4.6122436037309908e-04  1.0489781651205877e-03  3.1944879199697607e-03  1.2051731434349969e-03  6.8871207929899975e-03  4.4686714542342462e-03  5.2172788003774263e-03  -2.8506770462504395e-03  2.8809079128304673e-03  -6.5516166612578771e-03  2.0525375849672362e-02  -4.2970102855517207e-03  -2.2331659338106159e-04  -1.6768169872235336e-03  2.0487662826578173e-03  1.9000423653735775e-03  5.7450881208919750e-03  7.0196617260362953e-03  7.7795365475565852e-03  2.1239886834806270e-03  9.4990362813450135e-02  1.0439619759961281e-01  1.0112199345686348e-02  1.0258447884739959e-03  2.3558530486823821e-03  4.5336206827058072e-03  -1.5503833901827633e-03  1.5050908874704609e-02  -3.5484230616562402e-03  8.6116214189432532e-03  6.8276911841537351e-03  2.7144920087403021e-03  2.2453338480525713e-03  -6.4051095778672072e-03  3.1621422753506912e-03  4.5295801984415445e-03  2.3397725502286621e-03  1.0049762465130566e-01  1.0658584335272350e-01  1.0863441576181531e-02  1.4302202492889474e-02  4.5138323402903554e-04  1.3456447485573073e-03  5.0752755265817901e-03  8.1057807888617987e-03  1.2155199776897612e-02  8.7327727225488573e-03  5.9317563407967023e-03  2.4611679456222834e-03  5.8223254234438882e-03  2.4791166680470031e-03  8.4365982264813389e-03  4.5524531428094638e-04  1.0777655290645131e-01  7.6014219063054750e-02  1.0507433471791444e-01  9.7126209624470106e-02  1.1838957381692954e-01  1.0865361398493929e-01  1.0505614297820808e-01  1.0860981693704443e-01  1.9940474915884272e-03  2.1314310291587943e-03  5.9624448164917271e-02  1.5127959055507515e-02  1.6492110697148086e-03  1.4089744781293368e-02  2.7121359267289233e-03  7.7173614399203031e-03  3.1453277126692720e-03  1.5692437066190366e-02  -3.1900136643539657e-03  2.2500829541691144e-03  3.1791082601249502e-03  -3.2553106373666191e-03  6.3964028635618946e-03  9.1983964733820381e-02  7.1947543729703758e-02  5.0306014767825945e-02  4.2161608711677239e-03  2.4799716094505999e-03  1.2571070009472243e-01  1.0835166729693094e-02  7.3376744222493238e-03  2.4389322005869806e-03  2.9296876183689684e-02  9.0612883031891925e-02  8.5525928475896542e-03  6.8717711215010623e-03  8.2298483617015056e-02  1.8527100880950408e-03  8.4741394807869418e-03  8.7684078437182365e-03  3.8145655996841376e-03  8.7308794922279272e-03  8.5270442842397959e-03  6.5813896677864745e-03  4.0671697556106928e-03  2.8654488428420965e-03  6.4901666055255493e-03  4.8497959046624323e-03  7.0081039027868460e-03  1.0099215770258194e-02  3.6200579731727957e-03  8.6565843301358632e-03  7.9941574058619742e-03  1.8134500887867877e-03  1.4782726058194791e-03  1.0176871682154355e-01  6.8148722049971411e-02  -1.7079431384353805e-03  -1.8465921783000329e-03  1.1056960708285749e-02  3.1098782294791362e-03  3.6218813623539680e-03  3.7429715379454320e-03  1.5026341738139739e-03  -2.6288190446926100e-03  2.1144079942801665e-03  5.2432665274435306e-03  1.0310790250261091e-01  4.8478977639811946e-03  6.6499232027484537e-03  4.7066171373846650e-03  3.1237407764247616e-03  1.0764026400540502e-01  4.1690945789814781e-04  7.3205620747420635e-04  8.3745712262020770e-03  8.4816038600977847e-02  -2.1107682864509304e-02  8.2354131682089819e-03  7.3224349490821333e-03  3.8667470346268910e-03  1.2810015960109580e-01  8.1931810578466571e-03  -3.0608120958108436e-03  7.8765272423129071e-03  -6.0043669132257350e-04  1.0707859085830039e-01  1.1366713590257835e-01  8.8117225552471236e-03  1.3852256000383931e-02  1.3199135636090045e-01  1.0827053793450871e-01  4.3249067874912761e-03  1.4057454032151801e-03  3.4239502171507208e-03  1.0955495487261113e-02  3.1499479962214488e-03  8.5629152536683233e-03  5.1220861426762203e-03  1.9769790395510645e-03  5.9840000411231315e-03  1.1330964059835515e-01  1.0036460464844180e-01  6.4960466775079388e-03  7.8415443130846040e-03  3.5344178458194026e-03  4.6418934740783055e-03  7.0594084788071785e-03  1.0326176972985060e-02  9.7295853654983180e-03  5.3739882433873646e-03  4.8054599993843511e-03  1.4014697556214131e-03  9.8588424919380836e-03  2.9815821305170659e-03  1.5823451754150303e-01  1.0833053085958126e-01  8.8158274381280200e-03  3.9381213432631915e-03  -6.5285422929188238e-03  1.0178693907103144e-01  5.0702893490403439e-03  8.3540573906160792e-03  1.0993286821905580e-01  8.3916431242141404e-02  2.8774108480807180e-03  1.1030724763756085e-01  8.9265922785050189e-02  7.0048104520479470e-03  -1.0049627297638848e-02  1.5241587115564484e-02  5.1133901536513968e-02  1.5252531353172236e-02  4.7832364286454114e-03  -4.7104563070900669e-03  1.3118165864339248e-03  1.2095052484018590e-01  4.8591991368958261e-03  5.9460627391137236e-03  7.5040302493197455e-03  4.2461050972713186e-03  1.8547748319732439e-10  9.0599439550633973e-02  9.8601707809870291e-04  8.6615797209768045e-04  -2.4761404173117901e-03  2.9733146674228443e-03  7.2687710507406203e-03  1.1023666813052066e-01  1.2517331015548641e-01  4.6423103077751211e-04  1.7893938282862322e-03  8.6265739846972292e-02  9.9502748333402238e-02  1.2249695480115580e-01  4.0085672177734228e-03  9.8073291019242607e-03  9.3806517204300163e-03  8.9589162016361253e-03  9.0713327693493460e-03  1.1324420132300960e-02  4.3647878646515927e-03  1.7455707927355594e-03  1.1405707564777659e-01  8.5480395584024930e-03  9.1864838377812702e-03  1.5085543845235244e-03  4.7338391887788683e-02  9.0826234086827370e-02  8.2624494866469181e-02  4.2608917203316122e-03  1.1252095427155816e-01  1.5498504805810413e-02  7.2074027878692784e-03  -4.0911083280223883e-03  -2.4946051000935754e-03  1.2850543241449837e-03  1.6994002342331958e-03  2.3041475130431007e-10  1.3457753323259614e-01  8.8092317501610104e-02  3.9446400809791176e-03  6.0274851830093993e-03  -2.4404660485332659e-04  4.7095390697544978e-03  6.1313072636102091e-03  1.0296176538715901e-01  9.3798096492679908e-02  1.7037246462250483e-02  2.4888680976424024e-03  6.4540447231714690e-02  -3.5207007888721428e-03  2.5397108390244091e-03  9.7731375400354377e-03  7.3867130936338486e-03  3.1624358204097473e-02  7.8711816050921358e-03  5.4354854111863847e-03  5.7015402093634872e-03  8.3448290099848209e-04  9.1806675757704584e-04  3.8266373341108533e-04  8.0638678365300476e-02  5.3964553745669511e-02  4.3165071080425912e-03  2.8102697278058015e-03  -5.0004047674187778e-03  2.8530174398028302e-03  1.5227885281633437e-02  6.0511588552250202e-03  5.5490075484049099e-03  1.1689361778222393e-01  8.0440415733617904e-03  9.4871511485218486e-03  2.0189837416520586e-03  1.0841628463113452e-01  1.0849065235758265e-02  8.4132585904835508e-02  -3.3955642601343605e-03  1.0363074964583070e-01  2.3240330407692691e-03  1.5301262277707795e-02  1.8177072916788790e-03  8.9669388077647808e-02  -9.9369542589914923e-04  -3.3277392266809094e-03  1.8547748319732439e-10  3.1884337402213066e-03  1.0628708454071170e-03  8.1085569535059177e-03  7.7609640137140485e-03  9.0728817599925751e-02  8.8544107801066668e-02  3.6590112049327407e-03  6.9174922637226248e-04  3.3952603177343694e-03  1.4509972851118194e-03  8.7153614423556673e-03  8.2595455444880901e-03  8.1681778287813131e-03  7.4387223824731424e-02  7.2988520638205406e-03  -2.4670185702776386e-03  1.2683085907719004e-02  7.6571852863561917e-03  3.1153870269323819e-03  2.2819949614860001e-03  2.8085701680646354e-03  5.0442801705859594e-03  5.5800218222553325e-03  3.6183842210148055e-03  3.4549342485774874e-03  1.0085270649921915e-01  1.1056237894065010e-01  6.2654951570881986e-03  1.1754448812901118e-01  1.0632010230799582e-01  5.7641239950254964e-03  -5.5151891599049853e-03  -6.4279747902756092e-03  -3.5468369965722044e-03  2.1904448619610526e-03  -2.4342287744964610e-03  8.8715746225053044e-03  7.8080613138303917e-02  4.2257913345032103e-03  3.8751155140653356e-03  2.9403983727347123e-05  8.1593905518065266e-02  -2.1839772514498638e-04  6.7113665136590327e-03  1.3365376754243692e-02  1.1965128282799255e-01  1.0829566904342970e-01  7.9152284028328555e-03  -2.8845612631036964e-04  1.2701597029057427e-02  7.9169885397614419e-03  1.2921351319102272e-02  1.0827070249644684e-01  5.9001680738951833e-03  9.3241025572617792e-02  8.5760625448085635e-03  7.0313876861984578e-02  8.9281147737389863e-04  5.2668369423456707e-03  6.7413517145058629e-03  1.0794271464148343e-01  6.0329798369499503e-03  8.6961567999615987e-03  8.7925444698214068e-03  8.691307