<?xml version="1.0"?>
<VTKFile type="UnstructuredGrid"  version="0.1"  >
<UnstructuredGrid>
<Piece  NumberOfPoints="1404" NumberOfCells="2604">
<Points>
<DataArray  type="Float64"  NumberOfComponents="3"  format="ascii">0 0.41 0  0 0 0  2.2 0 0  2.2 0.41 0  0.2353553390593274 0.2353553390593274 0  0.25 0.2 0  0.2353553390593274 0.1646446609406726 0  0.2 0.15 0  0.1646446609406726 0.1646446609406726 0  0.15 0.2 0  0.1646446609406726 0.2353553390593274 0  0.2 0.25 0  0.6923879532511287 0.188268343236509 0  0.7 0.15 0  0.6923879532511287 0.1117316567634909 0  0.6707106781186547 0.07928932188134523 0  0.6382683432365089 0.05761204674887133 0  0.6 0.04999999999999999 0  0.5617316567634909 0.05761204674887134 0  0.5292893218813453 0.07928932188134524 0  0.5076120467488713 0.111731656763491 0  0.5 0.15 0  0.5076120467488713 0.188268343236509 0  0.5292893218813453 0.2207106781186547 0  0.561731656763491 0.2423879532511287 0  0.6 0.25 0  0.6382683432365089 0.2423879532511287 0  0.6707106781186547 0.2207106781186547 0  1.1 0 0  0 0.205 0  1.1 0.41 0  0.55 0 0  0.55 0.41 0  0.275 0 0  0.8250000000000001 0 0  0.275 0.41 0  0.8250000000000001 0.41 0  0.6875 0 0  0.61875 0 0  1.65 0.41 0  1.65 0 0  1.375 0 0  1.375 0.41 0  1.925 0 0  1.925 0.41 0  1.5125 0.205 0  1.7875 0.205 0  0.9625000000000001 0.205 0  1.2375 0.205 0  2.2 0.205 0  1.99375 0.2152743902439024 0  0.4125 0.41 0  2.0625 0 0  2.0625 0.41 0  2.2 0.3075 0  1.7875 0.41 0  1.375 0.1486128048780488 0  1.5125 0 0  1.7875 0 0  1.5125 0.41 0  0.9625000000000001 0.41 0  0.4125 0 0  0.1375 0 0  0.1375 0.41 0  0.6875 0.41 0  0.9625000000000001 0 0  1.2375 0 0  1.1 0.1486128048780488 0  1.2375 0.41 0  1.65 0.1486128048780487 0  0.823495464168302 0.2603780552348366 0  0.3738707794507017 0.2720196349488618 0  0.3662291281331582 0.1311456406657909 0  1.676715909090909 0.2793064024390244 0  1.126715909090909 0.2793064024390244 0  1.348284090909091 0.2793064024390244 0  0.8287581077665108 0.1302150898054257 0  1.894702181800738 0.1282910975492754 0  2.092797818199262 0.1282910975492754 0  1.85625 0.3075 0  0 0.3075 0  0 0.1025 0  2.099172119769978 0.25625 0  0.4752414543992246 0.3180372603390748 0  1.99375 0.08395950269330846 0  1.459960956013612 0.3075 0  1.569025960719943 0.2986889805672169 0  1.03125 0.3278689922742084 0  1.959375 0.3126371951219512 0  1.749222215368287 0.1025 0  1.275777784631713 0.1025 0  0.9228016959331474 0.3075 0  1.000777784631713 0.1025 0  2.2 0.1025 0  1.225938124459196 0.3075 0  1.550777784631713 0.1025 0  1.44375 0.07430640243902442 0  1.16875 0.07430640243902439 0  0.7562500000000001 0.3358727844323386 0  0.89375 0 0  1.899250267340833 0.2229966846119207 0  0.61875 0.41 0  1.766482954545455 0.2934032012195123 0  1.046078563095834 0.2389031808701145 0  1.421109702350723 0.2261157654379721 0  0.07567171807980319 0.25625 0  0.2511897295290552 0.3235829392832554 0  0.07655002503762308 0.1488653460959645 0  0.1377245246847496 0.3206030474919778 0  0.6694099692696568 0.3242771941727899 0  0.9168971191497528 0.1295727156104653 0  0.7562500000000001 0 0  2.118919042110979 0.3422084711244843 0  2.13125 0 0  0.06875000000000001 0 0  1.30625 0.41 0  1.597888256393107 0.2173787389261347 0  0.34375 0.41 0  0.2493272016354703 0.08091360081773515 0  0.5588896233436766 0.3264056208677571 0  1.829299675393195 0.07400700849299596 0  0.1334079128307869 0.08523463035786674 0  1.71875 0.41 0  0.06875000000000001 0.41 0  1.16875 0.41 0  2.038220665644273 0.332420740103091 0  0.8810647413215221 0.2027360103977071 0  0.34375 0 0  0.7453891198966415 0.2471459041008237 0  0.42112093004955 0.1988123139090554 0  0.8314023090855964 0.3351170841770613 0  0.89375 0.41 0  0.7906250000000001 0.06615386481594063 0  1.452769549894695 0.1548122580621249 0  1.369219062229598 0.07430640243902442 0  1.30625 0 0  1.07420695807087 0.07430640243902439 0  1.720943423819132 0.1714577452753128 0  1.157188124459196 0.205 0  1.304056576180868 0.1714577452753128 0  1.67579304192913 0.07430640243902437 0  1.209670467133757 0.136210026696477 0  0.4312800784902823 0.08036147352247747 0  0.8723959680194693 0.07066860609690805 0  1.025335513626278 0.1700681449722324 0  0.7945632284247136 0.1940204203251442 0  0.378125 0.3452261501101892 0  0.3307109909790086 0.2037165635083759 0  0.3009701032039409 0.2702970083403109 0  0.20625 0.41 0  1.58125 0 0  0.4812500000000001 0 0  0.9838963872396855 0.2722244191167347 0  0.06772484939107212 0.3260067317374387 0  0.20625 0 0  1.58125 0.41 0  1.631724228912893 0.3381867502687533 0  1.825608881788174 0.14499488549201 0  1.85625 0 0  1.44375 0 0  1.44375 0.41 0  1.85625 0.41 0  2.13125 0.41 0  0.7562500000000001 0.41 0  0.4812500000000001 0.41 0  1.16875 0 0  1.03125 0.41 0  1.03125 0 0  1.71875 0 0  1.99375 0 0  1.99375 0.41 0  0.9408708167433545 0.0651989315768642 0  1.340625 0.3489494290853124 0  1.134375 0.3489494290853123 0  1.700180620188976 0.3438659752031281 0  0.29668452290037 0.1318471691375986 0  0.3175441051360096 0.06496934809856265 0  0.06509151636162461 0.08140814015999148 0  2.135782184673599 0.07126652247502523 0  1.668441847249787 0.2129203728327609 0  1.295782514339747 0.2378437748815763 0  1.409375 0.3520314716057996 0  2.129248544730567 0.1906135162504124 0  2.060771381434487 0.1989445750470348 0  2.013252586573865 0.1496169464686054 0  1.942766402200229 0.1734448904596831 0  1.895522487186454 0.06076163953489683 0  2.069553871656643 0.06605731020975725 0  0.4670911801404742 0.2498408582391372 0  0.7622743084658112 0.1264100838268133 0  1.274680914880868 0.3520219391081363 0  0.3148669572599245 0.3331753056385887 0  1.614713220494657 0.09473434380863296 0  1.72990325744076 0.2380068107952482 0  1.356580098625191 0.2120393231351682 0  2.034370752044885 0.2668681600792073 0  1.51768709249349 0.3426260931494756 0  1.561883724969884 0.1650446847858835 0  1.197344062229598 0.2523725417393646 0  1.804085235518364 0.3468178408964637 0  1.817887819205233 0.2589243285818559 0  1.905897727272727 0.3485060975609756 0  0.7296439733931823 0.06337466644369745 0  0.4250935971865949 0.1394919578475796 0  0.3773030136511669 0.05130372097998036 0  1.192836486056382 0.3562350748565544 0  1.1029124365364 0.226143510831178 0  1.28257088594801 0.2944411014911587 0  0.1905185804731426 0.06029880676029167 0  1.474860187679412 0.2504218616229368 0  1.406767003493824 0.2829282258560709 0  0.5209826960981064 0.2830664557824064 0  0.5131119502780163 0.3617405848213254 0  0.1948220106098172 0.3081993407644811 0  1.845656689180403 0.1998310418452388 0  2.144958525570388 0.2909790873294231 0  2.2 0.15375 0  0.8833025251326762 0.2625402923007629 0  0.171875 0.3653875762360952 0  1.57794966442982 0.3540357145964566 0  0.446875 0.366068291212731 0  0.4272051715206439 0.2891929346190664 0  1.508991196088596 0.1421783375065625 0  1.50436820029908 0.06143401634903343 0  1.223857000523521 0.08235548624535324 0  0.6137904613287555 0.3066826366281556 0  1.153316824384777 0.1289850171317838 0  0.9751573703656133 0.327632618473408 0  2.148922302309752 0.1258841779285271 0  0.9281250000000001 0.3643758685795699 0  1.621993280276081 0.2841214267927899 0  1.550118654119087 0.2461998729100966 0  1.327182649291491 0.1216967252533594 0  0.9939955742738924 0.04663549843168518 0  1.753125 0.04556020050186112 0  1.271875 0.04556020050186116 0  0.9734326767716519 0.1506854560854393 0  0.103125 0.3675775577080512 0  1.94956388244759 0.1180512551534177 0  1.949997712993411 0.04965831614304109 0  0.717433898748555 0.295596016333797 0  1.771961817615021 0.1530278789497521 0  1.909246823951428 0.2812757146784527 0  0 0.35875 0  1.050632804931928 0.1226269704412814 0  0.05695108326502596 0.2024009637347154 0  1.948575539857022 0.2445328248721197 0  1.697271520964565 0.1233917627620729 0  1.065625 0.3689344961371042 0  1.085849084308977 0.3170853572226867 0  0.1015495998772944 0.04226029099983852 0  1.577403511714593 0.05463601888079143 0  1.751571320346033 0.3651102912045228 0  2.2 0.35875 0  0.7441773632462837 0.1786786606458751 0  0 0.05125 0  1.466879772203159 0.3611261772912453 0  0.6282230348858767 0.3577675483994025 0  1.990280163552011 0.3564754268533217 0  1.17471064520912 0.2990917256188288 0  0 0.25625 0  2.2 0.25625 0  2.2 0.05125 0  0 0.15375 0  1.853978576207987 0.35875 0  1.515638456102889 0.2882700110184686 0  2.150453692751374 0.2387066338105111 0  1.323782677156475 0.04897634338873398 0  1.409375 0.03715320121951221 0  1.406484531114799 0.1087852750766809 0  1.134375 0.03715320121951219 0  0.721875 0.3729363922161693 0  0.7941695928236929 0.3696489254637395 0  0.7934827162619036 0.3013409431456604 0  1.627401732573545 0.04552157221025036 0  0.9352049974617431 0.2507047965699472 0  0.8763260682738339 0.3611103317460093 0  2.045405893604797 0.1105340662939892 0  1.255408269734577 0.1577307500159216 0  2.028125 0.03707597992059326 0  1.003030137506755 0.3689344961371042 0  1.248258025468107 0.2565907092181813 0  1.203125 0.03661323374043041 0  0.4800125512335631 0.0549472816999725 0  2.072662025974815 0.2975086504196739 0  0.240625 0.3729825336867542 0  1.113252391110535 0.10238286244357 0  1.071052763974265 0.1885202618768825 0  0.8738809401657862 0.3106483608284829 0  0.6786819423003397 0.2677558482644021 0  1.887722846421017 0.1760882698830035 0  1.472640588990488 0.1118278026240017 0  0.5843750000000001 0.41 0  1.865937103925594 0.2604137786483804 0  1.463913572748262 0.2030442564990043 0  1.376426316059077 0.3186741374914345 0  0.1038643885363755 0.2162701735320032 0  0.1769473813227781 0.1070849728467114 0  0.458787839809176 0.171541653775316 0  0.240625 0 0  0.04179569703428024 0.2877217852556549 0  0.1258346557601885 0.2699740073054968 0  1.722140693354707 0.282908100935778 0  0.41206179117512 0.2448172567039922 0  0.3702471778075604 0.2265217604228704 0  0.3714881805374215 0.1786967818665642 0  1.77397096061971 0.2481483237422926 0  2.105123889160691 0.03743885948498647 0  1.001138337938679 0.229719337663998 0  1.051242910646791 0.2854826559431138 0  1.395420985247586 0.18
[...]
<PointData  Scalars="f_43"> 
<DataArray  type="Float64"  Name="f_43"  format="ascii">1.0791921594970731e-01  2.0432733502995373e-01  -3.4723258988662622e-12  -7.9836371546805583e-11  8.0359381492254051e-02  8.3533638230836441e-02  7.0141080426906949e-02  6.6415765840729307e-02  1.3683405975944285e-01  1.3835589012714031e-01  8.9241518944221096e-02  7.1115902630512526e-02  -4.7814613827503712e-03  -3.5628135310326013e-03  -7.3995417358559291e-03  -1.4340183401949957e-02  3.5321810361060517e-02  -6.2976783494917404e-03  -2.1079551372613917e-02  8.7347684124858480e-02  1.5899074077062539e-01  1.5172245170348411e-01  7.3916967158305966e-02  1.5296973903385896e-02  -1.9782585818019865e-02  -3.4081708724193235e-02  -2.4820350243758900e-02  -1.1155390846413742e-02  -1.7191744313689995e-03  1.1806517681234732e-01  2.4975828996363168e-03  5.7700838031969022e-02  4.7336281539691938e-02  1.0119914641501544e-01  -1.0828888729069355e-03  9.2761234334321568e-02  2.4708180569704279e-04  -3.2273970062273185e-03  3.3739668951496423e-03  5.7756099950458965e-03  7.5312602744411847e-03  1.0086296540195536e-02  1.5001200707033867e-03  3.1077687162787979e-03  3.7343899257836020e-03  5.0594457225465236e-03  5.1247693853010839e-03  1.8030354581787256e-03  -1.0661204824687514e-03  -6.4904895405605989e-11  2.5841476910296083e-03  8.0333359152422387e-02  1.6240155409912773e-03  1.7939296114332657e-03  7.7703539593012148e-12  5.6134483607815115e-03  6.0371939124602069e-03  1.1903952128700950e-02  4.6605617155001475e-03  2.4896298591401095e-03  1.1773072605950131e-03  1.0637972884792485e-01  1.1385553166835662e-01  1.0689224578509483e-01  7.8403605357387669e-03  -2.2659241329998751e-04  2.8854874857870956e-04  -1.2516162323031200e-03  2.8305654050902120e-03  6.8663303477882430e-03  1.2262406788158494e-03  9.1321425053723038e-02  9.9444669416024423e-02  5.9591211281860663e-03  1.5501661146243898e-03  2.3009218399909336e-03  8.9585031620827810e-04  3.5237231714703343e-03  1.2980903635069496e-03  4.6839578972584436e-03  1.0870361076422691e-01  1.2852463511298681e-01  1.2748718334871889e-03  7.1790107092139843e-02  2.4027060345098929e-03  9.3454202619966821e-04  3.5960868650188899e-03  2.3261245337555781e-03  3.2021898405950287e-03  5.2733884505052090e-03  4.8691525660283366e-05  1.9272915935188025e-03  1.1976913929387645e-04  -2.5019904392262828e-11  3.2103548369045625e-03  1.0145960374057870e-02  1.1759352155047923e-02  -2.2794867445393792e-03  1.2194514577715419e-03  -2.4248519086328570e-04  3.8149944965688394e-03  2.3400647336363139e-02  5.7674182224615950e-03  1.0454512152192586e-03  3.2726543379049951e-03  1.1325347210864246e-01  9.0195863219790909e-02  1.2853924662014279e-01  1.0507392310576036e-01  1.6742555298348920e-03  1.0067926062707522e-03  -3.0258994446297682e-03  1.0428868036230009e-03  8.2479701210445052e-04  1.2792106729882202e-01  2.3081981723294693e-03  5.5430768651885762e-03  8.6714305218577842e-02  9.5150506679083174e-02  3.3978086464447770e-02  4.1453702766693903e-03  1.2081267188314170e-01  6.0926243779446517e-03  1.0830754229086502e-01  2.8492034330729644e-03  2.1171170413868527e-03  2.2446140403369402e-03  1.0273415129770462e-01  -2.9320871354723906e-03  9.6285500832799714e-02  1.2531156423648312e-03  5.0436959735579488e-04  -3.5229664024416215e-04  8.3875896361156662e-03  8.2550866373275241e-03  5.0148253431741086e-03  -1.0427856566328935e-03  5.7669772882970021e-03  -1.4914746566646235e-03  1.0686385466780707e-03  6.8525125469239131e-03  -2.9143571408119118e-03  1.1693640793832219e-01  2.9904032476725496e-04  6.0218825526854852e-04  3.1284507197700483e-04  8.5161922238441823e-02  8.8779558550872564e-02  8.7320987699658584e-02  1.0081455952909432e-01  9.7673118269899616e-03  1.0644172122600602e-01  1.9651404816646259e-03  1.0824545313226391e-01  1.0528257182856533e-01  4.3744647670673894e-03  5.3224307285779484e-03  4.3495841515496167e-03  3.8242913186796951e-03  1.2539914198513922e-02  1.3145452564453999e-03  4.7330371186365744e-03  8.8267706035873451e-04  1.6831520367743132e-03  6.8273658250946348e-02  -1.8091709411250680e-03  1.8969999350659558e-03  -8.5831445986207962e-04  5.8240445178336323e-03  2.3872548063796919e-03  2.7426357360088348e-03  1.8841381791347438e-04  2.2720996957076860e-03  3.2305505324743303e-03  6.0475976943875917e-03  8.7442790912774349e-02  1.0133897713169242e-01  1.2847335510877608e-01  7.7350859763451762e-04  6.0731734826045347e-03  1.7407753614834063e-03  1.2859956107196570e-03  8.7391410343971854e-04  1.7252043576010171e-03  2.2453375022669269e-03  3.1105045001006233e-03  3.4157435764318807e-03  1.5472559290397767e-03  8.0954172038563976e-02  -1.9818217714113570e-03  3.1086477835649317e-03  8.9046132959389748e-02  8.4442885225772448e-03  5.8602455159713421e-03  3.1820112858513541e-03  2.1254635146439336e-03  2.1543885188725210e-03  7.4532694358573634e-03  5.6992970928917215e-04  5.4167468394672336e-03  5.0469988777569483e-03  4.0091923545048508e-03  -2.0996574393122736e-03  1.1799584769730879e-01  1.0610918629277113e-01  3.4083133561197227e-03  -1.0574623155844349e-04  2.9558556157304474e-03  1.0623496473234352e-01  2.1648570687605611e-03  1.3898647358022123e-03  4.5716509665274040e-02  5.8157503870403776e-02  9.2523268877015383e-02  4.3838395896789702e-03  6.9647624339081078e-04  -6.1250607246790541e-11  2.2106734217421267e-03  1.0326280468724051e-01  3.9834830801449839e-03  7.5163996334017921e-02  8.6552735398461381e-02  9.1942240095789791e-03  1.1902651621693098e-02  -1.7854603667215652e-03  -4.9898992190807808e-05  -2.6279539312823084e-03  1.9942975462938625e-03  6.2381428108531625e-04  1.3698471505377994e-03  5.1531417760463912e-03  3.7667723935999988e-03  3.3905326738340636e-03  -2.1121355201317662e-04  5.2259137606317429e-03  1.6670428216745703e-03  9.1984229090800800e-04  1.0744875075400689e-01  2.9129418866113712e-03  2.8494143044044771e-03  -3.0449949539785408e-03  5.0474404763605311e-03  3.8665827384805223e-03  1.0775618568841512e-01  -3.9252364017727971e-04  1.2072667325906575e-01  3.2307414109468322e-03  6.1890253764994765e-03  2.5831516876212227e-03  2.5689613608344862e-03  1.2263934528544171e-01  9.9742991483131992e-03  5.9102208777135042e-03  -7.9836371546805583e-11  -2.5102623130432251e-03  1.3724152725823716e-01  1.3644253016357509e-03  1.7035734093914748e-02  2.7907157656410385e-03  2.6609235287959861e-03  1.1213593066320014e-01  -6.4904895405605989e-11  -3.4723258988662622e-12  1.2376758216447846e-01  4.7597209722952723e-03  1.9630074031194281e-03  6.2097080895754070e-04  5.4373683553092175e-03  1.1217503603411333e-02  9.4393503104535995e-03  -1.7924133845776949e-03  4.2922936317912894e-03  1.3153879708227146e-03  6.4157371334135310e-04  8.3466204714455500e-03  2.2437948016743297e-03  1.1047906013708730e-03  1.8421557092322674e-03  -1.6198971326937866e-03  2.0097302844538992e-03  1.9934197638023189e-03  1.5592794221266819e-03  -1.2590598963493941e-03  1.0952734737393549e-01  1.6393254337318762e-03  9.5874019848247463e-02  -1.7917718264049026e-03  -4.1356635507453385e-05  1.6656950742308370e-03  -1.0738992793422794e-02  3.7630682524768234e-03  1.0936011016673032e-02  3.4862271031341437e-02  4.4108634783606993e-03  4.9205253748956469e-03  1.6827627833672443e-03  1.2368306876137104e-01  1.0723839381836676e-01  1.1616877982026892e-01  1.0230104591379104e-01  1.0994739617542565e-01  1.0619545918726143e-01  6.0343355645955544e-03  9.1673615551566431e-02  9.1778670615996732e-02  9.2820063618031981e-02  5.5171382768189900e-03  1.1306777016832517e-03  1.5923767707696982e-03  1.7943968096290259e-03  5.0725321813889831e-03  2.2632454663449857e-03  8.2769807278115212e-02  7.7974627749878029e-03  1.2739270506223827e-01  1.3221670832651511e-01  1.7018571276106252e-03  1.4539157950710555e-03  9.2919939194608489e-02  5.2764713204563433e-03  2.6989767256716374e-03  8.9295271260897341e-02  8.4527797876409502e-02  8.5843559234065225e-02  4.7653232753187093e-04  1.3344902563569355e-03  1.6209276854287067e-03  1.5717154398936209e-03  5.0630038359263238e-04  5.1922013793288466e-03  9.8269748724395482e-03  4.6403447216414968e-03  3.9024946533418696e-02  1.4093947941075199e-01  1.0786072948375822e-01  2.5367158892814260e-03  2.4321822524072654e-03  -6.5806452645996198e-04  8.9511732380234951e-02  9.1417084020236711e-02  -2.3884697569191856e-03  1.2579345677091085e-02  6.3716370942012105e-03  3.4307908610923775e-03  -6.8368547151657867e-04  6.5913145470038017e-03  6.1154334031739699e-03  4.8900635244668094e-04  5.2058950560450706e-04  1.3058094628823558e-01  1.3337337623276044e-01  1.0794393498944443e-01  1.1371675059405700e-01  -5.7409110091628487e-04  -2.2892729403911678e-04  5.6458426533819986e-03  4.5458397376292670e-03  3.7357061603959978e-03  8.9074136153229011e-02  8.1860975614057266e-02  1.0124127606395039e-01  1.0918917565269864e-02  3.4220256404005438e-03  1.8819068183012937e-03  1.3767219697719069e-01  4.1932052527401687e-04  5.2018601172233387e-03  6.0171148672812542e-03  5.7816334996633337e-03  1.0956039021924979e-01  1.7393085289908517e-03  9.7093746670365660e-02  8.7112494656031714e-02  5.4218591852814163e-03  3.2278385120846236e-03  8.9784612634508917e-02  1.2993376914425660e-03  1.2351960037592320e-02  2.1901265377955682e-03  1.0303158948620338e-01  4.5427400606163574e-03  -8.0759007230941687e-04  1.0805112314556108e-01  1.0155541294724374e-01  7.8109680049103569e-02  -1.4992055294599767e-04  2.0577293376490754e-05  -1.2431379909586841e-04  -1.9412976846205612e-03  4.8171543750888493e-04  1.2804766958039290e-01  2.6761031887860024e-03  8.0186611828415730e-02  9.6376463943347881e-02  -2.3798549391483703e-04  -4.2661522533872153e-03  2.4352574349887570e-03  5.3762217187655385e-02  4.2370897215693992e-03  9.6726938024819881e-02  3.8186309175669958e-03  3.4607307454585425e-03  3.0901506517336283e-03  8.7139776171411623e-02  1.1019356256177382e-02  9.9046986978811079e-04  5.9567619793052130e-03  -4.1173723354339916e-04  -1.4049934576439264e-03  7.1891627789510710e-03  7.2595498497618300e-03  8.5926894012372829e-02  1.1534549901996442e-01  2.1430578403592599e-03  8.0110003951394098e-03  8.7908233541396485e-02  1.8005414526648248e-03  1.2438304854711728e-01  4.8062859867263009e-03  -1.4675512789395092e-03  -3.1409186995661198e-03  2.3614277145109844e-02  7.1181964434820734e-03  -1.0590754770622789e-02  1.9685917040447873e-03  1.3048359150638505e-03  2.7127934522160283e-03  1.0813051093861042e-01  1.3263380544039714e-03  9.3302458878509248e-04  1.5868848198553379e-03  -9.9450775342841439e-06  1.1440919395013700e-02  -1.3045395996535544e-03  -1.0721302257160974e-03  -1.8443390474366351e-03  -1.3423901563957058e-04  5.5595120728020569e-03  1.7952433297602400e-04  5.5615195637337906e-03  4.8302275764914747e-04  7.0123364873558702e-03  8.4922653656671256e-03  6.2281139468995210e-03  3.3985837275972595e-03  2.7015482912303365e-03  8.3649082240866909e-02  -2.0121804907804572e-03  -2.7654216272499244e-03  4.6050507154732460e-03  5.8700361129041603e-03  8.4080185206059489e-04  5.0669554754070368e-04  5.2448356208967834e-03  6.6434342675806869e-03  2.7578518526532071e-03  8.0828030442645929e-02  8.3785996787357236e-02  2.0845408785784745e-03  4.2162004163973131e-03  8.8028490987484068e-02  1.7295438313489567e-03  2.1810869951030001e-03  3.2151204544516149e-03  1.1655138849184198e-03  2.3448471642338840e-03  -1.7245269376622229e-03  1.0367754687436201e-03  4.5630802264432678e-04  5.7649625090852828e-03  1.0964477487461564e-02  8.0805726440129962e-04  2.5035436210329878e-04  1.2266460400887544e-03  -1.6213268628666909e-04  1.3256972918015775e-01  1.0905431987633189e-01  1.0616127494425132e-02  2.9602304038910420e-03  1.0358295633270304e-01  -4.2186688727888465e-03  4.2824781192455659e-04  9.6708073696851967e-04  3.0308483786318152e-03  1.1811913473397751e-03  -1.1433742916271688e-03  3.9169475761694104e-03  4.7602196926339723e-03  -1.7458350725696947e-03  1.5223342713048197e-03  -7.1390032794351075e-03  2.0952328122752391e-02  1.3835279173821940e-04  2.1054429552952985e-03  1.6505679830315489e-03  3.1858716454057248e-03  2.7201070765293981e-03  2.5933010343997974e-03  1.9016086649628879e-03  1.7008215475501939e-03  2.8545693328573519e-03  9.4322775607143569e-02  1.0380059890450156e-01  5.9920762716594682e-03  9.5521601474121785e-04  2.8968073046347631e-03  4.1094765123240989e-03  -9.3350174758267035e-04  3.0690887848240287e-05  1.9908992254809303e-03  1.1333153383153492e-03  6.0581968036071236e-03  2.5263245893469293e-03  2.0991726738478671e-03  -1.5473368127474736e-04  3.1416794349180218e-03  2.6475223412675275e-03  2.9087079305457311e-03  9.9983780185602236e-02  1.0605833922185591e-01  -1.7463392416458550e-03  7.7415583074983210e-03  4.1624357160873442e-04  1.2260707924231582e-03  3.8569313713779740e-03  -1.9963989500574844e-03  1.1792492702903097e-02  1.7352674401722070e-03  5.9392696955661130e-03  2.2217896956306079e-03  5.1842159362053388e-03  8.1217884490202344e-04  1.2605056364709947e-03  4.4031454875610336e-04  1.0748715178529791e-01  7.5486607609246317e-02  1.0455331635453105e-01  9.6640318841018757e-02  1.1781706754210419e-01  1.0812696752221380e-01  1.0453192875769639e-01  1.0810622801608800e-01  2.7516783822980137e-04  6.3895211009694114e-04  5.9002798993539329e-02  1.4105217126564573e-02  2.4378172955033359e-03  -1.1519916328569533e-03  1.5351579481768165e-03  8.6015078314394186e-03  2.7511727900022586e-03  2.3831016087942853e-03  -4.7373980279479748e-04  2.0111664325853144e-03  3.2327006525900530e-03  -6.5074711238039012e-05  6.0275540458497928e-03  9.1011654694730951e-02  7.1237898970896107e-02  4.9489345136680588e-02  -1.6994038223384813e-03  2.2395799014958673e-03  1.2515794324172400e-01  1.0075127974125230e-02  -2.6829759720807286e-03  1.2042553777195375e-03  2.8424512007012858e-02  9.0045333303234484e-02  2.4382399066399888e-03  2.5891243051915204e-03  8.1721211036052871e-02  3.3677957746493388e-03  2.5862067160422764e-03  1.4152904701235972e-03  3.2834825299487632e-03  1.0321222509278381e-03  1.3034347323133508e-03  6.0254438571690737e-03  4.1743973046311743e-03  1.0403830283208751e-03  5.9432691726119379e-03  4.1953061444580256e-03  5.9322544897786305e-03  1.7408564170366511e-03  3.6800382695311683e-03  1.9664208054869289e-03  9.2762547411821394e-03  1.6337260483058197e-03  1.3518237037260662e-03  1.0084005113263590e-01  6.7573983796605522e-02  1.8256045046253309e-03  -8.9155807893649382e-04  4.2807322157957448e-03  3.4125610639416225e-03  3.4153572618556404e-03  3.3853087426552477e-03  1.4722897824831374e-03  -1.1053902671067583e-03  2.0790437839136736e-03  5.4005281250613371e-03  1.0247562259842706e-01  5.0308162273095527e-03  6.0773367316317327e-03  4.6052913111110233e-03  2.7469786377002274e-03  1.0713165909997643e-01  3.9881938202771921e-04  -2.9074241840098381e-04  8.7590374049737272e-03  8.4341289410571452e-02  -2.1709558630839829e-02  9.5426457363395698e-03  7.7836207234482820e-03  3.9865269319468832e-03  1.2760042394657778e-01  3.7320013024757710e-03  -2.3323575145824983e-03  4.5673772318200285e-03  2.3377489436221801e-03  1.0663679113610335e-01  1.1323362637883512e-01  6.7611353277182889e-03  5.5875863478182138e-03  1.3207970508068828e-01  1.0765084435711500e-01  4.4842105433848291e-03  1.7838338374827469e-03  3.4904033690566151e-03  -2.1721344701059017e-03  2.2278261528248262e-03  1.0403735478250050e-02  4.9706325071084472e-03  3.3430088706139401e-03  5.8382038979761727e-03  1.1270853839468016e-01  9.9726829740816744e-02  -2.3752330720092020e-03  4.4301952223436768e-04  2.0629071703620384e-03  -6.8543898184515555e-04  6.3383854746891554e-03  1.2069406116268505e-02  1.0044157209142300e-02  5.4317122963557533e-03  4.9013782065370909e-03  1.3244170296239886e-03  1.2125528787098536e-02  3.0206625033690191e-03  1.5769172274173499e-01  1.0782851545737047e-01  8.8458491177138068e-03  3.4105065887494548e-03  -5.1841544272134962e-03  1.0127162137059477e-01  3.0583350304189860e-03  3.0554275982331933e-03  1.0946957238537683e-01  8.3430940439671836e-02  2.5818371243097708e-03  1.0982464372273704e-01  8.8749278243885760e-02  2.0602929660783788e-03  -8.7655109342341317e-03  1.5954139092292360e-02  5.0438519565280976e-02  -1.7993596612453594e-04  4.9640522892450897e-03  1.0243265390496880e-03  1.1965529367446645e-03  1.2046344237302926e-01  4.1632295031454498e-03  2.1940045036079702e-04  7.5930740038786500e-03  4.3197726006767570e-03  -6.4904895405605989e-11  9.0094252759736065e-02  2.0528594023362804e-03  2.2972094782453753e-03  -5.4164620550146547e-04  1.7577934339222045e-03  5.6810875197424414e-03  1.0952791521732416e-01  1.2470596450552011e-01  4.2890434219125599e-04  1.7341541337993079e-03  8.5774951763700799e-02  9.9453408779736241e-02  1.2185518874110142e-01  3.9717087316411496e-03  3.5061976824783451e-03  3.0354682594588836e-03  1.2845749010154412e-03  3.4945626601458214e-03  1.2123088365590184e-02  4.5190393977997392e-03  1.8306706899655664e-03  1.1358927725495402e-01  1.9143662092952886e-03  1.9202806744665448e-03  1.9290417932364069e-03  4.6569668665030241e-02  9.0329001913110815e-02  8.2185372165695367e-02  4.0308543163072594e-03  1.1204159180957618e-01  1.4569927106303350e-02  6.2005211428625097e-03  -4.9210814602921246e-03  4.7108358751217846e-04  5.3438022114123650e-04  -8.5150302962752036e-04  -2.5019904392262828e-11  1.3384378364815014e-01  8.7603251771777024e-02  2.8138881206648970e-03  2.2425716025877367e-03  1.9566450552285617e-03  2.7904689203117478e-03  5.6389900000356260e-03  1.0231907281126267e-01  9.2822753817140294e-02  1.6062129856121366e-02  2.9249269360895600e-03  6.3920860963790835e-02  -3.1561611036514412e-04  2.5492855875363543e-03  9.0353115854591159e-03  5.4738016775666091e-03  3.0790440253178057e-02  7.3477697573331819e-03  4.3802124725099622e-03  5.7567281943747377e-03  8.0869155029291285e-04  8.8052004647713169e-04  3.6744888711481377e-04  8.0048697847956235e-02  5.2965134310204380e-02  4.2074103641473156e-03  2.8196580577682919e-03  -5.8694821687421111e-03  9.7411105457934489e-04  3.9559514883822323e-03  5.5352774473279740e-03  4.8789212737513406e-03  1.1641521624545428e-01  8.7143124677548575e-03  -2.9796322068533138e-03  -2.0071640461703896e-03  1.0790450207190129e-01  2.8351152526366651e-03  8.3555040264868347e-02  -2.7711053348254380e-03  1.0294446068033010e-01  3.4744864203588208e-03  1.7856291509469146e-03  1.0811227603927617e-03  8.9183423529358097e-02  -9.3930018785551273e-04  -2.5244609074407689e-04  -6.4904895405605989e-11  2.1500216670078728e-03  2.0410732024481251e-03  3.8306585408084850e-03  4.7748780500836575e-03  9.0123267447222377e-02  8.7781653585606745e-02  3.2168920110023647e-03  -3.5676720654103842e-04  3.0620868406590149e-03  1.3846663350186692e-03  4.0042840140047942e-03  3.6313627467218601e-03  4.6956941375983054e-03  7.3855266630766553e-02  2.2049889067211129e-03  -1.7814041954947240e-03  -2.1618433368683883e-03  6.9936184689893518e-03  2.7313778718869607e-03  2.1896808601840987e-03  2.3530938916960470e-03  4.7386832930099033e-03  5.6811240942211978e-03  3.1309843987823841e-03  2.9966313335632730e-03  1.0022797536978933e-01  1.1007999062050203e-01  6.0378874588894729e-03  1.1696080090121438e-01  1.0610207794824926e-01  5.1489711683684230e-03  1.4204342220165396e-03  4.7071186048853428e-04  -1.6997507773100232e-06  3.1195190007227125e-03  8.7622883015824103e-04  1.0147153183246553e-03  7.7567475359764784e-02  3.7814812681708360e-03  3.2458469432126613e-03  -1.0217441696298134e-03  8.1198898445977968e-02  -1.2035267333777321e-03  6.0028233414952262e-03  -2.5271905209879736e-03  1.1949819019373924e-01  1.0846833880453952e-01  4.4254045690098028e-03  2.2257992283505009e-03  5.0100727186065241e-03  9.0845348565568446e-03  9.7785893340360461e-03  1.0776431436942725e-01  5.4094650860724257e-03  9.2735924866436614e-02  2.7779556988699961e-03  6.9731536746740860e-02  8.1730598048875903e-04  4.6743479310332606e-03  5.9883392110430126e-03  1.0695535899066558e-01  2.7017593647584398e-03  1.4784595660807111e-03  1.1449711162163036e-