<?xml version="1.0"?>
<VTKFile type="UnstructuredGrid"  version="0.1"  >
<UnstructuredGrid>
<Piece  NumberOfPoints="1404" NumberOfCells="2604">
<Points>
<DataArray  type="Float64"  NumberOfComponents="3"  format="ascii">0 0.41 0  0 0 0  2.2 0 0  2.2 0.41 0  0.2353553390593274 0.2353553390593274 0  0.25 0.2 0  0.2353553390593274 0.1646446609406726 0  0.2 0.15 0  0.1646446609406726 0.1646446609406726 0  0.15 0.2 0  0.1646446609406726 0.2353553390593274 0  0.2 0.25 0  0.6923879532511287 0.188268343236509 0  0.7 0.15 0  0.6923879532511287 0.1117316567634909 0  0.6707106781186547 0.07928932188134523 0  0.6382683432365089 0.05761204674887133 0  0.6 0.04999999999999999 0  0.5617316567634909 0.05761204674887134 0  0.5292893218813453 0.07928932188134524 0  0.5076120467488713 0.111731656763491 0  0.5 0.15 0  0.5076120467488713 0.188268343236509 0  0.5292893218813453 0.2207106781186547 0  0.561731656763491 0.2423879532511287 0  0.6 0.25 0  0.6382683432365089 0.2423879532511287 0  0.6707106781186547 0.2207106781186547 0  1.1 0 0  0 0.205 0  1.1 0.41 0  0.55 0 0  0.55 0.41 0  0.275 0 0  0.8250000000000001 0 0  0.275 0.41 0  0.8250000000000001 0.41 0  0.6875 0 0  0.61875 0 0  1.65 0.41 0  1.65 0 0  1.375 0 0  1.375 0.41 0  1.925 0 0  1.925 0.41 0  1.5125 0.205 0  1.7875 0.205 0  0.9625000000000001 0.205 0  1.2375 0.205 0  2.2 0.205 0  1.99375 0.2152743902439024 0  0.4125 0.41 0  2.0625 0 0  2.0625 0.41 0  2.2 0.3075 0  1.7875 0.41 0  1.375 0.1486128048780488 0  1.5125 0 0  1.7875 0 0  1.5125 0.41 0  0.9625000000000001 0.41 0  0.4125 0 0  0.1375 0 0  0.1375 0.41 0  0.6875 0.41 0  0.9625000000000001 0 0  1.2375 0 0  1.1 0.1486128048780488 0  1.2375 0.41 0  1.65 0.1486128048780487 0  0.823495464168302 0.2603780552348366 0  0.3738707794507017 0.2720196349488618 0  0.3662291281331582 0.1311456406657909 0  1.676715909090909 0.2793064024390244 0  1.126715909090909 0.2793064024390244 0  1.348284090909091 0.2793064024390244 0  0.8287581077665108 0.1302150898054257 0  1.894702181800738 0.1282910975492754 0  2.092797818199262 0.1282910975492754 0  1.85625 0.3075 0  0 0.3075 0  0 0.1025 0  2.099172119769978 0.25625 0  0.4752414543992246 0.3180372603390748 0  1.99375 0.08395950269330846 0  1.459960956013612 0.3075 0  1.569025960719943 0.2986889805672169 0  1.03125 0.3278689922742084 0  1.959375 0.3126371951219512 0  1.749222215368287 0.1025 0  1.275777784631713 0.1025 0  0.9228016959331474 0.3075 0  1.000777784631713 0.1025 0  2.2 0.1025 0  1.225938124459196 0.3075 0  1.550777784631713 0.1025 0  1.44375 0.07430640243902442 0  1.16875 0.07430640243902439 0  0.7562500000000001 0.3358727844323386 0  0.89375 0 0  1.899250267340833 0.2229966846119207 0  0.61875 0.41 0  1.766482954545455 0.2934032012195123 0  1.046078563095834 0.2389031808701145 0  1.421109702350723 0.2261157654379721 0  0.07567171807980319 0.25625 0  0.2511897295290552 0.3235829392832554 0  0.07655002503762308 0.1488653460959645 0  0.1377245246847496 0.3206030474919778 0  0.6694099692696568 0.3242771941727899 0  0.9168971191497528 0.1295727156104653 0  0.7562500000000001 0 0  2.118919042110979 0.3422084711244843 0  2.13125 0 0  0.06875000000000001 0 0  1.30625 0.41 0  1.597888256393107 0.2173787389261347 0  0.34375 0.41 0  0.2493272016354703 0.08091360081773515 0  0.5588896233436766 0.3264056208677571 0  1.829299675393195 0.07400700849299596 0  0.1334079128307869 0.08523463035786674 0  1.71875 0.41 0  0.06875000000000001 0.41 0  1.16875 0.41 0  2.038220665644273 0.332420740103091 0  0.8810647413215221 0.2027360103977071 0  0.34375 0 0  0.7453891198966415 0.2471459041008237 0  0.42112093004955 0.1988123139090554 0  0.8314023090855964 0.3351170841770613 0  0.89375 0.41 0  0.7906250000000001 0.06615386481594063 0  1.452769549894695 0.1548122580621249 0  1.369219062229598 0.07430640243902442 0  1.30625 0 0  1.07420695807087 0.07430640243902439 0  1.720943423819132 0.1714577452753128 0  1.157188124459196 0.205 0  1.304056576180868 0.1714577452753128 0  1.67579304192913 0.07430640243902437 0  1.209670467133757 0.136210026696477 0  0.4312800784902823 0.08036147352247747 0  0.8723959680194693 0.07066860609690805 0  1.025335513626278 0.1700681449722324 0  0.7945632284247136 0.1940204203251442 0  0.378125 0.3452261501101892 0  0.3307109909790086 0.2037165635083759 0  0.3009701032039409 0.2702970083403109 0  0.20625 0.41 0  1.58125 0 0  0.4812500000000001 0 0  0.9838963872396855 0.2722244191167347 0  0.06772484939107212 0.3260067317374387 0  0.20625 0 0  1.58125 0.41 0  1.631724228912893 0.3381867502687533 0  1.825608881788174 0.14499488549201 0  1.85625 0 0  1.44375 0 0  1.44375 0.41 0  1.85625 0.41 0  2.13125 0.41 0  0.7562500000000001 0.41 0  0.4812500000000001 0.41 0  1.16875 0 0  1.03125 0.41 0  1.03125 0 0  1.71875 0 0  1.99375 0 0  1.99375 0.41 0  0.9408708167433545 0.0651989315768642 0  1.340625 0.3489494290853124 0  1.134375 0.3489494290853123 0  1.700180620188976 0.3438659752031281 0  0.29668452290037 0.1318471691375986 0  0.3175441051360096 0.06496934809856265 0  0.06509151636162461 0.08140814015999148 0  2.135782184673599 0.07126652247502523 0  1.668441847249787 0.2129203728327609 0  1.295782514339747 0.2378437748815763 0  1.409375 0.3520314716057996 0  2.129248544730567 0.1906135162504124 0  2.060771381434487 0.1989445750470348 0  2.013252586573865 0.1496169464686054 0  1.942766402200229 0.1734448904596831 0  1.895522487186454 0.06076163953489683 0  2.069553871656643 0.06605731020975725 0  0.4670911801404742 0.2498408582391372 0  0.7622743084658112 0.1264100838268133 0  1.274680914880868 0.3520219391081363 0  0.3148669572599245 0.3331753056385887 0  1.614713220494657 0.09473434380863296 0  1.72990325744076 0.2380068107952482 0  1.356580098625191 0.2120393231351682 0  2.034370752044885 0.2668681600792073 0  1.51768709249349 0.3426260931494756 0  1.561883724969884 0.1650446847858835 0  1.197344062229598 0.2523725417393646 0  1.804085235518364 0.3468178408964637 0  1.817887819205233 0.2589243285818559 0  1.905897727272727 0.3485060975609756 0  0.7296439733931823 0.06337466644369745 0  0.4250935971865949 0.1394919578475796 0  0.3773030136511669 0.05130372097998036 0  1.192836486056382 0.3562350748565544 0  1.1029124365364 0.226143510831178 0  1.28257088594801 0.2944411014911587 0  0.1905185804731426 0.06029880676029167 0  1.474860187679412 0.2504218616229368 0  1.406767003493824 0.2829282258560709 0  0.5209826960981064 0.2830664557824064 0  0.5131119502780163 0.3617405848213254 0  0.1948220106098172 0.3081993407644811 0  1.845656689180403 0.1998310418452388 0  2.144958525570388 0.2909790873294231 0  2.2 0.15375 0  0.8833025251326762 0.2625402923007629 0  0.171875 0.3653875762360952 0  1.57794966442982 0.3540357145964566 0  0.446875 0.366068291212731 0  0.4272051715206439 0.2891929346190664 0  1.508991196088596 0.1421783375065625 0  1.50436820029908 0.06143401634903343 0  1.223857000523521 0.08235548624535324 0  0.6137904613287555 0.3066826366281556 0  1.153316824384777 0.1289850171317838 0  0.9751573703656133 0.327632618473408 0  2.148922302309752 0.1258841779285271 0  0.9281250000000001 0.3643758685795699 0  1.621993280276081 0.2841214267927899 0  1.550118654119087 0.2461998729100966 0  1.327182649291491 0.1216967252533594 0  0.9939955742738924 0.04663549843168518 0  1.753125 0.04556020050186112 0  1.271875 0.04556020050186116 0  0.9734326767716519 0.1506854560854393 0  0.103125 0.3675775577080512 0  1.94956388244759 0.1180512551534177 0  1.949997712993411 0.04965831614304109 0  0.717433898748555 0.295596016333797 0  1.771961817615021 0.1530278789497521 0  1.909246823951428 0.2812757146784527 0  0 0.35875 0  1.050632804931928 0.1226269704412814 0  0.05695108326502596 0.2024009637347154 0  1.948575539857022 0.2445328248721197 0  1.697271520964565 0.1233917627620729 0  1.065625 0.3689344961371042 0  1.085849084308977 0.3170853572226867 0  0.1015495998772944 0.04226029099983852 0  1.577403511714593 0.05463601888079143 0  1.751571320346033 0.3651102912045228 0  2.2 0.35875 0  0.7441773632462837 0.1786786606458751 0  0 0.05125 0  1.466879772203159 0.3611261772912453 0  0.6282230348858767 0.3577675483994025 0  1.990280163552011 0.3564754268533217 0  1.17471064520912 0.2990917256188288 0  0 0.25625 0  2.2 0.25625 0  2.2 0.05125 0  0 0.15375 0  1.853978576207987 0.35875 0  1.515638456102889 0.2882700110184686 0  2.150453692751374 0.2387066338105111 0  1.323782677156475 0.04897634338873398 0  1.409375 0.03715320121951221 0  1.406484531114799 0.1087852750766809 0  1.134375 0.03715320121951219 0  0.721875 0.3729363922161693 0  0.7941695928236929 0.3696489254637395 0  0.7934827162619036 0.3013409431456604 0  1.627401732573545 0.04552157221025036 0  0.9352049974617431 0.2507047965699472 0  0.8763260682738339 0.3611103317460093 0  2.045405893604797 0.1105340662939892 0  1.255408269734577 0.1577307500159216 0  2.028125 0.03707597992059326 0  1.003030137506755 0.3689344961371042 0  1.248258025468107 0.2565907092181813 0  1.203125 0.03661323374043041 0  0.4800125512335631 0.0549472816999725 0  2.072662025974815 0.2975086504196739 0  0.240625 0.3729825336867542 0  1.113252391110535 0.10238286244357 0  1.071052763974265 0.1885202618768825 0  0.8738809401657862 0.3106483608284829 0  0.6786819423003397 0.2677558482644021 0  1.887722846421017 0.1760882698830035 0  1.472640588990488 0.1118278026240017 0  0.5843750000000001 0.41 0  1.865937103925594 0.2604137786483804 0  1.463913572748262 0.2030442564990043 0  1.376426316059077 0.3186741374914345 0  0.1038643885363755 0.2162701735320032 0  0.1769473813227781 0.1070849728467114 0  0.458787839809176 0.171541653775316 0  0.240625 0 0  0.04179569703428024 0.2877217852556549 0  0.1258346557601885 0.2699740073054968 0  1.722140693354707 0.282908100935778 0  0.41206179117512 0.2448172567039922 0  0.3702471778075604 0.2265217604228704 0  0.3714881805374215 0.1786967818665642 0  1.77397096061971 0.2481483237422926 0  2.105123889160691 0.03743885948498647 0  1.001138337938679 0.229719337663998 0  1.051242910646791 0.2854826559431138 0  1.395420985247586 0.18
[...]
<PointData  Scalars="f_43"> 
<DataArray  type="Float64"  Name="f_43"  format="ascii">1.4048337105201045e-01  2.3052954177427512e-01  1.8978106773005815e-12  -1.3681284337536250e-10  1.0860383616531541e-01  1.1680260976979774e-01  9.7874802587080895e-02  1.0034873467413039e-01  1.7573382048296790e-01  1.5930747318561700e-01  1.0848514553084956e-01  9.3084521540859597e-02  2.3323518058416697e-02  3.4343785730079290e-02  3.1135138116924026e-02  1.6303305838894326e-02  6.4805382017175381e-02  8.1631345754615888e-03  -6.6608862027265400e-03  1.0664506719238698e-01  1.4972381204019308e-01  1.5107401551518723e-01  1.2198614188854097e-01  7.4126674770351397e-02  2.4910492631207953e-02  -9.1744780109546328e-03  -1.3628994344030072e-02  5.0176025357947778e-03  3.2565358040705268e-02  1.4044286379827975e-01  3.1821159984391389e-02  7.0237474942861242e-02  6.9336233035300718e-02  1.3318242673297304e-01  3.7349386427623178e-02  1.2063867974124597e-01  3.6934849072271667e-02  2.6834663078076311e-02  2.3460097655805749e-02  1.6111668129727565e-02  1.6059303178591184e-02  2.4251795472113463e-02  2.4085915220029366e-02  8.0802719210498943e-03  8.0765173602255838e-03  2.0147047531992222e-02  1.2083564052349179e-02  3.6466819517420951e-02  2.8206791664025968e-02  7.8776632313589527e-11  6.0398666667476715e-03  1.0695787371229669e-01  4.0175154052357739e-03  4.0202672161578096e-03  6.9938735720396267e-11  1.2065164251720184e-02  2.4205479930758569e-02  2.0178841948040475e-02  1.2102737048957821e-02  2.0125810320373281e-02  3.5196935674762342e-02  1.3211792471799558e-01  1.4375833424786533e-01  1.3926711253987642e-01  3.7862847719444238e-02  3.6509397881242543e-02  2.8370501981477510e-02  3.2356146035236066e-02  2.8019269462029699e-02  1.6120152025084419e-02  3.9956602304875209e-02  1.2048957095508842e-01  1.3414215173177263e-01  1.5328265600384930e-02  3.1319511804790048e-02  2.4916571478204582e-02  4.0521393520708555e-02  8.9404494397276896e-03  3.1407482346724300e-03  1.0065043013321050e-02  1.3567499465928090e-01  1.5210835795276562e-01  2.9506867869493782e-03  9.4669776331436292e-02  6.0434590304899380e-03  2.1660146508459280e-02  1.8480089046715470e-02  3.3868083674574785e-02  7.0451119936728668e-03  1.3209312719302268e-02  2.7166058450985006e-02  3.7038827833292501e-02  3.5344253648386947e-02  -2.1750180269610657e-11  2.8429052794397707e-02  1.9040578227918034e-02  2.2203236755355973e-02  3.0400475782843363e-02  3.8023129347993359e-02  3.7754844716143522e-02  8.8080388834522565e-03  4.8136862921612858e-02  1.2696012155831188e-02  3.3788994176124569e-02  2.2818056304135897e-02  1.3820082341137246e-01  1.1962866285419840e-01  1.5238628289163231e-01  1.3467819402259351e-01  3.1638610335968750e-02  3.7796158494729941e-02  3.2789912622516439e-02  2.3808809080579450e-03  1.9803212158479460e-03  1.5517855184041862e-01  2.6086459524272569e-02  1.7641150401735389e-02  1.1511271816597916e-01  1.2995996233584195e-01  5.7469754853295418e-02  1.0857004349207628e-02  1.5171702266568288e-01  1.4101547263968048e-02  1.4330501835064471e-01  2.9936589729685586e-02  4.7386314530032626e-03  3.9152609922688680e-02  1.3254833591672127e-01  3.3548900114433101e-02  1.2830059452829076e-01  3.8578564378972210e-02  3.6519808777447781e-02  3.8455760590693673e-02  2.1912888872656758e-02  2.4412630594377996e-02  2.6318740345472557e-02  3.3215637315611585e-02  1.4036132126422260e-02  3.0565536226481563e-02  2.6279966024099290e-02  1.5367023122165056e-02  2.9102768648810586e-02  1.3716944618391369e-01  3.8190731748134921e-02  3.4567981252266608e-02  4.1168998121180168e-02  1.1291354758774569e-01  1.2840655371841703e-01  1.2243292215727733e-01  1.2896230787585691e-01  1.8137087471103451e-02  1.2411838972806065e-01  3.5526869935984792e-02  1.3888824367484592e-01  1.3772010595043277e-01  1.8096742418348199e-02  1.6639879804012575e-02  1.0968052715113814e-02  1.0060029563422173e-02  2.2223580202313645e-02  2.2118396663007234e-02  1.0056040085944207e-02  1.9758322032133735e-03  3.6702914625024959e-02  9.1666338153325047e-02  3.0476122726851369e-02  3.3567846423342006e-02  3.4638829530971464e-02  1.4070203131299400e-02  6.0122027735280926e-03  6.0354251031968491e-03  3.6887219012847715e-02  2.5117697734997228e-02  3.0954872479829667e-02  1.4640183449414765e-02  1.2637117747735416e-01  1.3345180265415066e-01  1.5303676930405186e-01  1.8868442383620518e-03  1.5574226419059136e-02  2.6472723434297039e-02  2.3108580138707643e-02  2.0704057997068034e-03  4.0754568862266215e-03  5.4671994033576501e-03  7.5314309575966855e-03  8.9053059515123087e-03  3.8138157894720055e-03  1.0808071609900941e-01  4.1516963896315089e-02  2.6963306723169465e-02  1.1890033417569271e-01  1.7158576314451831e-02  1.3770999512566837e-02  2.4713798043414351e-02  4.8505874645424071e-03  1.9968926566922594e-02  1.8705487963220423e-02  2.9321607603088710e-02  1.1587224667117179e-02  1.1189955282569223e-02  8.6100338041323193e-03  3.4594062924522842e-02  1.3853039304180445e-01  1.3375531561926851e-01  2.9306899239693190e-02  3.2129643283657687e-02  2.6809954148740465e-02  1.3889212619175489e-01  2.1239807751537193e-02  2.3215653050521600e-02  7.2967482022318231e-02  8.0734376526409787e-02  1.1994364921138699e-01  1.0377612512726037e-02  1.6091930648617777e-03  3.2982565292313401e-11  3.8678140387039282e-02  1.3285100091250163e-01  1.8208204561867437e-02  1.0016820337318116e-01  1.1081632251601159e-01  2.0262208846350500e-02  2.0423188100311043e-02  2.8734161453762428e-02  2.6796180811787564e-02  3.0790616726657560e-02  3.5413494779454033e-02  1.4972592552184364e-03  3.6235041938482267e-02  1.6929765124924109e-02  1.9037653066164381e-02  2.5629865115380450e-02  3.5573719352915346e-02  1.3104940455475236e-02  2.7314956978762087e-02  3.6160982250889290e-02  1.4109501907954522e-01  7.3310209082070475e-03  7.3146793523129177e-03  3.1923487829304459e-02  1.2541267050051055e-02  8.5127999130318512e-03  1.3826227623222084e-01  3.3866080566480647e-02  1.4309404364448883e-01  7.3611548344363949e-03  1.4730433704253745e-02  3.2788127998758847e-02  3.2390873310012537e-02  1.5112243432850123e-01  1.8262811720067836e-02  1.3119967292998183e-02  -1.3681284337536250e-10  3.7041437964421914e-02  1.6235693833116513e-01  2.1440525315736664e-02  4.2695604317131590e-02  6.1421624896762393e-03  2.9905212366403356e-02  1.3591852188958770e-01  7.8776632313589527e-11  1.8978106773005815e-12  1.4629257439549057e-01  1.0129456778401233e-02  2.0037297183414592e-02  1.4501208484413357e-03  2.5764193748210609e-02  2.3237753801483758e-02  2.3292787420861306e-02  3.1468750075504336e-02  3.7473836484390781e-02  3.7779432396679885e-02  3.9364140802768191e-02  1.6792905064770550e-02  3.7161920295007866e-02  3.7318408777881396e-02  4.5282899938144635e-03  2.7726410164881209e-02  5.0306466264210961e-03  3.4402249055698067e-02  2.7837750964237643e-02  2.9392903673953932e-02  1.2775094076516361e-01  3.7296057528076365e-03  1.2369244711647195e-01  3.2024593248019192e-02  3.3156087942683155e-02  3.8276773620814469e-02  9.9457609890551205e-03  9.1441404291205015e-03  2.1338640241056417e-02  5.7672123133312166e-02  9.7831290162694682e-03  2.1572089835556727e-02  2.4088699173885408e-02  1.4670270998474602e-01  1.4202279271120072e-01  1.3660585581920365e-01  1.3480881413838033e-01  1.3577561156846643e-01  1.3142231396194340e-01  1.3996006853467868e-02  1.2017645218604021e-01  1.2582749746718289e-01  1.3053153782489227e-01  1.2479045643909845e-02  2.7910258190535003e-03  3.5181584946162754e-02  3.3484600762061147e-02  2.3584672345597663e-02  5.0538767105493326e-03  1.1042384065699400e-01  1.7500903140910799e-02  1.5054404877758579e-01  1.6405335966216081e-01  4.0547224891116444e-02  3.9273286888372422e-02  1.0586196675703427e-01  1.1361798929182243e-02  6.1360357432783527e-03  1.3002920117112826e-01  1.2239433762885023e-01  1.2505159693974649e-01  1.0908492610529404e-03  3.0322791473342738e-03  3.6607831088271733e-03  3.7411577739311329e-02  3.6589288358251190e-02  1.7130427182145733e-02  3.8941805266761532e-02  1.1913916037540330e-02  6.1592920163858471e-02  1.4480079035772397e-01  1.3105557832810322e-01  5.6780942431932943e-03  2.3927987265002056e-02  3.0868984704577607e-02  1.1785704201646438e-01  1.1984486567048411e-01  2.9415624987512216e-02  2.1169925637619911e-02  1.6660231751241400e-02  1.9138259267699631e-02  3.4293555964885633e-02  1.5158016956459706e-02  1.4400616317745710e-02  1.1978911697426322e-03  1.1864293052126851e-03  1.5696941860432170e-01  1.5948106227711353e-01  1.4041770250855698e-01  1.4435088894511713e-01  3.7797524400324078e-02  3.7804561615641642e-02  1.6557092692523808e-02  1.1803618491272460e-02  9.7297182074067845e-03  1.1840770126695004e-01  1.1617319640196690e-01  1.3341522855995530e-01  1.9195586420636613e-02  7.4196177314595759e-03  4.0233956888410208e-02  1.6473928867133192e-01  3.9186504353792125e-02  1.1103917641817427e-02  1.3586270665580649e-02  1.5707803491430701e-02  1.3614400542892927e-01  4.1964465013382638e-03  1.3312072142861051e-01  1.1562387621474601e-01  1.8943817088516304e-02  2.8133648410580372e-02  1.2578926144986760e-01  3.0997963726757580e-03  2.1490011672603941e-02  3.7782276455731435e-02  1.3555510385387029e-01  1.7872553411626815e-02  2.8171182121782892e-02  1.3752776775296338e-01  1.3259825867864186e-01  9.2397281404067930e-02  3.7194432498534484e-02  3.7517278051447951e-02  3.1004355285680091e-02  3.1209832016442143e-02  1.1472106899942142e-03  1.5332763773055083e-01  2.5682063838198245e-02  1.0464147846742564e-01  1.2421610655509926e-01  3.9622086682130062e-02  2.6745470593846479e-02  6.1718546780930930e-03  7.6234052863557153e-02  9.0546999441475217e-03  1.2278669414908236e-01  1.0035000581251230e-02  9.0548101462959944e-03  7.9455637911107959e-03  1.1972515815134584e-01  2.0212823785113451e-02  3.2716361437459075e-02  1.4276414040468019e-02  3.4316281100164908e-02  3.2691398476824576e-02  1.5666598029852905e-02  1.6027306537536565e-02  1.2100042070970607e-01  1.3798038362730355e-01  4.7712222759411496e-03  2.3049096398454989e-02  1.1449534085516025e-01  3.6206921719903883e-02  1.4674361913931835e-01  1.2359229132522491e-02  3.7059725287116513e-02  3.0135670511931157e-02  4.7486836750832616e-02  2.0830162033856448e-02  1.5060805314250077e-02  4.8962055806805582e-03  2.2141976331612887e-02  2.0135469464703747e-02  1.3727008272481817e-01  3.9346356243297249e-02  3.7601096918332425e-02  3.5333036358946704e-02  4.1789226727007397e-02  1.9666678811023183e-02  3.3547593940646020e-02  3.5386277172429398e-02  3.5809746558892810e-02  4.0693930955876721e-02  1.3259326127817092e-02  2.7032466983722643e-02  1.3700073610533211e-02  2.6643950841019119e-02  2.4391019269894294e-02  2.4696520391476563e-02  1.5066048603996332e-02  2.5270996905912623e-02  6.6241875415827128e-03  1.1582442766458056e-01  2.8089941821179833e-02  2.9648570400293364e-02  1.7504927699395410e-02  1.5595283570484968e-02  3.8970361687976421e-02  3.7735080701413848e-02  1.6769563227250650e-02  1.7718136303317915e-02  1.9615684944380724e-02  1.0759239979277380e-01  1.1160769706137220e-01  3.4783167082339514e-02  1.1074774698931644e-02  1.1995205199744202e-01  4.0096402683659762e-03  5.0611768539597759e-03  2.6121965071362704e-02  2.6743416737695486e-03  3.7612807438549799e-02  3.7805856827143436e-02  2.4279465108326655e-03  1.0747764625191997e-03  1.2533094266895821e-02  1.9264091848021494e-02  3.4114000483838551e-02  3.4865767843057095e-02  3.5598634612741001e-02  3.7805224727423807e-02  1.5717913560508712e-01  1.4065842043503829e-01  2.3263828110683872e-02  3.1946069223484849e-02  1.3431091784319973e-01  3.7058891722184614e-02  1.0320752218116393e-03  2.3459782977795730e-03  7.1151385809175528e-03  2.6788647680366373e-03  2.9192995975641581e-02  1.0005599670511473e-02  1.1652172058811791e-02  3.9519396648254095e-02  3.7135441029046062e-02  1.4447810035052851e-02  3.7212772637741351e-02  3.6063241684197653e-02  3.6482445044095473e-02  3.4471543909374534e-02  3.0176072575322604e-02  3.0869026075793716e-02  2.6003325863178429e-02  2.5092253114970660e-02  2.4136725000642709e-02  3.0839925127935864e-02  1.3051724042973772e-01  1.3319209208626573e-01  2.2516522870702459e-02  2.2910891168107595e-03  2.8995400000242599e-02  1.0130357107046134e-02  3.2126114255479329e-02  2.8334680944256476e-02  3.6154621974263723e-02  2.3074973008221058e-02  1.5075409399948935e-02  6.0556363411420925e-03  5.0050925246113700e-03  3.3620410220016848e-02  7.0195761103461823e-03  2.7015880356151874e-02  3.1372572853229960e-02  1.2823574616821870e-01  1.3811579546817507e-01  3.0448591340600011e-02  2.5265075809512649e-02  1.0415732073733122e-03  2.9768144858435212e-03  3.6717507429174095e-02  3.1510921437088842e-02  2.3272153432049567e-02  2.1092760274061092e-02  1.3075033635086020e-02  3.2684420141206795e-02  1.3096438123453647e-02  3.5913052441906040e-02  2.3126934681267804e-02  1.0000253555679771e-03  1.3000239369750730e-01  1.0049232195815964e-01  1.3259638756097022e-01  1.2414071121499436e-01  1.4622094289643525e-01  1.4270049193093565e-01  1.3428428749171187e-01  1.4151436329262462e-01  3.6844565582588348e-02  3.6907678475994389e-02  8.1227890307530914e-02  4.1258558069168234e-02  2.7504195304698383e-02  2.9423739721716365e-02  3.4458760639693942e-02  1.7170957639547100e-02  7.0283385528731469e-03  2.7313107486053347e-02  3.5568376278744394e-02  5.0317000240144268e-03  7.0083467641647891e-03  3.6785867687936333e-02  1.4128725604890056e-02  1.2033127480013638e-01  9.4465879547929441e-02  8.6337735325250464e-02  3.1991297493226920e-02  5.5429764195489917e-03  1.5169591515586481e-01  2.2329626537035515e-02  3.0227761643018429e-02  3.8691982603550577e-02  5.2363803417313802e-02  1.2213891780025021e-01  2.5351922871004431e-02  2.5968461369696005e-02  1.1376403132930718e-01  3.0013398681821808e-02  1.9373286175063110e-02  2.0663260631687955e-02  8.5635189115456801e-03  2.2205932646667693e-02  2.2600471318375639e-02  1.4605882312308343e-02  9.0042817201727229e-03  3.0232942310605370e-02  1.4455712017835097e-02  1.0875356929925157e-02  1.5578878198807242e-02  2.5976776464274560e-02  8.0283696701318550e-03  2.0631494376901743e-02  1.7648911098081723e-02  4.0556366324384059e-03  3.3036163480132251e-03  1.3305998407159492e-01  9.1188734203991456e-02  3.8598151172955154e-02  3.6380307236960611e-02  2.4524847675508398e-02  2.7838486339790421e-02  8.0701616091722484e-03  8.3645992605592898e-03  3.3334465272789834e-03  3.2873523080718503e-02  4.6918516297025006e-03  1.1591006871239259e-02  1.3329218135679616e-01  1.0719501465266441e-02  1.4715537544112244e-02  1.0464004907014123e-02  7.0004291813237710e-03  1.3903182739250888e-01  9.2745628610492036e-04  3.9157605704654576e-02  1.8479546225858828e-02  1.1222644099685185e-01  -3.4402182323158942e-04  1.8142682961833037e-02  1.6359294623048030e-02  8.5608974494027438e-03  1.5155263349658432e-01  1.8621591118069027e-02  3.0188984215683883e-02  1.7686429616078268e-02  3.8186946393003879e-02  1.3254595425023710e-01  1.3460529339981109e-01  1.9546035543301657e-02  2.5184651198094803e-02  1.3872343520765471e-01  1.3949533829303895e-01  9.5697230572012789e-03  3.9045439895998665e-02  7.5784314100296049e-03  2.8506323249965885e-02  3.3583330697638601e-02  1.8660061074391963e-02  1.1390685277687726e-02  2.9226568975730741e-02  1.3266157766339709e-02  1.4485844164749506e-01  1.3351999608634418e-01  3.1062149971527162e-02  2.7541732378656099e-02  2.8604799914674725e-02  2.9993630760408865e-02  1.5742959675898172e-02  2.1285609137300262e-02  2.4159637779137658e-02  1.1906188026407079e-02  1.0650387322408469e-02  3.1217882019623812e-03  2.0631593417951656e-02  6.6115911819003368e-03  1.8350483813029067e-01  1.3967086048053878e-01  1.9342404347281482e-02  8.8258466157186515e-03  3.2658353384770862e-02  1.2974606746136907e-01  2.6523049838016045e-02  1.9079022878132620e-02  1.3495506425035150e-01  1.0967907909674812e-01  6.4346827936326342e-03  1.3721294123557165e-01  1.2091205825534532e-01  2.4969560572680641e-02  2.2901788020591646e-02  3.8661218553151029e-02  7.2717160366167113e-02  2.7758984702917700e-02  1.0561126823535197e-02  3.7039088278680327e-02  2.9377366190999859e-03  1.4260892418493140e-01  1.0913917770549200e-02  2.8560586676258368e-02  1.6725213851559079e-02  9.4123633420091328e-03  7.8776632313589527e-11  1.1985701943172192e-01  3.7967282616046344e-02  3.9181788073740564e-02  3.5010410387847739e-02  3.6217710735320076e-02  1.6161272427715798e-02  1.3654624622503253e-01  1.4017354044044608e-01  1.0418853502616419e-03  3.9757831351657181e-03  1.1677106518302791e-01  1.1509885733782826e-01  1.5879746073892637e-01  8.9041784002916440e-03  2.3662071076539306e-02  2.1934153588288773e-02  2.1295369637031755e-02  2.0687806521511171e-02  2.2329128687730279e-02  9.6645581288905338e-03  3.2626433954507837e-02  1.3771279121872718e-01  2.4059753507142435e-02  2.2863997627362378e-02  3.9585193470884190e-02  6.9120157404406080e-02  1.1897508702875532e-01  1.0674503315263029e-01  9.4960948278426244e-03  1.3591123701306881e-01  4.0228897880136366e-02  3.2998838204044825e-02  2.6953606157246835e-02  3.2979659512692786e-02  3.1759326369491345e-02  3.1365946424865315e-02  -2.1750180269610657e-11  1.4300599437786915e-01  1.1670976363626880e-01  2.7716262581413204e-02  2.6955109733052866e-02  3.9576435355932846e-02  2.6834128227407439e-02  1.3771642343458622e-02  1.3434865770265225e-01  1.2783150184106504e-01  4.2905846671118811e-02  3.1574129273478399e-02  8.6699409744179154e-02  3.4894019276905601e-02  5.6288024340125035e-03  2.1095346789730508e-02  1.6421130733193345e-02  5.7376103598986872e-02  4.5154987355909865e-02  3.5774149951275230e-02  1.2579473480793961e-02  1.8525423735476919e-03  2.0430066269315596e-03  8.5104693552873287e-04  1.0294472886780341e-01  1.0000994893063386e-01  9.6004678668547561e-03  6.2234168511738300e-03  2.2997319243373410e-02  3.6618923096800857e-02  2.6532616355673059e-02  1.3596146817553835e-02  1.2484371643643162e-02  1.3952567690855042e-01  1.7808331863732339e-02  2.9946363880001999e-02  3.1542732966024833e-02  1.4208178665794460e-01  2.5283947807042351e-02  1.1800369984767319e-01  3.9453288875538103e-02  1.3489976034866477e-01  2.8623854505413555e-02  2.6898229874793293e-02  4.0409882205091112e-02  1.1794125440659435e-01  4.1024888914053384e-02  3.5987025365327434e-02  7.8776632313589527e-11  3.4615623103891643e-02  3.5655039353146893e-02  1.8275061302760350e-02  1.7370836378560534e-02  1.1642967704721105e-01  1.1311753293946805e-01  8.1944328887695924e-03  3.6419175364118657e-02  7.5897382530470082e-03  3.2320700989322327e-03  1.9662405707848375e-02  1.8613915553618070e-02  1.8299600093375883e-02  9.7804252537740333e-02  2.4902177559918023e-02  3.2705992560360442e-02  2.9555381845659555e-02  1.7055192270739115e-02  3.2700233914436244e-02  3.1853120567246353e-02  3.3214947931735725e-02  1.1243751866625075e-02  1.2319321991602454e-02  8.1313173475319085e-03  7.7270859922606554e-03  1.3459058610652294e-01  1.3529843856067564e-01  1.3847391117886699e-02  1.4611984466015282e-01  1.2657464294854950e-01  1.2915429209815260e-02  3.6467581951482121e-02  3.5666361262723642e-02  3.6320195859963059e-02  2.9416515351206370e-02  3.8321342829519871e-02  2.2518120822394339e-02  1.0343916731586406e-01  9.4491509008200435e-03  2.7369938471705386e-02  3.3474403369018850e-02  1.0335188344499460e-01  3.1763928651767519e-02  1.4927618806412208e-02  2.8844187777143166e-02  1.3632646791266201e-01  1.2198073443213733e-01  1.7723262379733443e-02  3.7762855239612668e-02  2.4887029681236916e-02  1.7518005302653863e-02  2.3939796418724919e-02  1.4065194963441466e-01  1.3178310061645774e-02  1.2128024463265070e-01  1.9516904523621790e-02  1.0061250272529623e-01  1.9894778603611967e-03  1.1790224821649150e-02  1.4908082461997225e-02  1.3401944310454922e-01  2.5825426582091197e-02  2.1604864605045477e-02  2.1407115629851346e-02  2.0685573125277093e-02  1.3742687566343709e-01  4.0784657023568788e-02  3.5310604681560054e-02  6.686834514