<?xml version="1.0"?>
<VTKFile type="UnstructuredGrid"  version="0.1"  >
<UnstructuredGrid>
<Piece  NumberOfPoints="1404" NumberOfCells="2604">
<Points>
<DataArray  type="Float64"  NumberOfComponents="3"  format="ascii">0 0.41 0  0 0 0  2.2 0 0  2.2 0.41 0  0.2353553390593274 0.2353553390593274 0  0.25 0.2 0  0.2353553390593274 0.1646446609406726 0  0.2 0.15 0  0.1646446609406726 0.1646446609406726 0  0.15 0.2 0  0.1646446609406726 0.2353553390593274 0  0.2 0.25 0  0.6923879532511287 0.188268343236509 0  0.7 0.15 0  0.6923879532511287 0.1117316567634909 0  0.6707106781186547 0.07928932188134523 0  0.6382683432365089 0.05761204674887133 0  0.6 0.04999999999999999 0  0.5617316567634909 0.05761204674887134 0  0.5292893218813453 0.07928932188134524 0  0.5076120467488713 0.111731656763491 0  0.5 0.15 0  0.5076120467488713 0.188268343236509 0  0.5292893218813453 0.2207106781186547 0  0.561731656763491 0.2423879532511287 0  0.6 0.25 0  0.6382683432365089 0.2423879532511287 0  0.6707106781186547 0.2207106781186547 0  1.1 0 0  0 0.205 0  1.1 0.41 0  0.55 0 0  0.55 0.41 0  0.275 0 0  0.8250000000000001 0 0  0.275 0.41 0  0.8250000000000001 0.41 0  0.6875 0 0  0.61875 0 0  1.65 0.41 0  1.65 0 0  1.375 0 0  1.375 0.41 0  1.925 0 0  1.925 0.41 0  1.5125 0.205 0  1.7875 0.205 0  0.9625000000000001 0.205 0  1.2375 0.205 0  2.2 0.205 0  1.99375 0.2152743902439024 0  0.4125 0.41 0  2.0625 0 0  2.0625 0.41 0  2.2 0.3075 0  1.7875 0.41 0  1.375 0.1486128048780488 0  1.5125 0 0  1.7875 0 0  1.5125 0.41 0  0.9625000000000001 0.41 0  0.4125 0 0  0.1375 0 0  0.1375 0.41 0  0.6875 0.41 0  0.9625000000000001 0 0  1.2375 0 0  1.1 0.1486128048780488 0  1.2375 0.41 0  1.65 0.1486128048780487 0  0.823495464168302 0.2603780552348366 0  0.3738707794507017 0.2720196349488618 0  0.3662291281331582 0.1311456406657909 0  1.676715909090909 0.2793064024390244 0  1.126715909090909 0.2793064024390244 0  1.348284090909091 0.2793064024390244 0  0.8287581077665108 0.1302150898054257 0  1.894702181800738 0.1282910975492754 0  2.092797818199262 0.1282910975492754 0  1.85625 0.3075 0  0 0.3075 0  0 0.1025 0  2.099172119769978 0.25625 0  0.4752414543992246 0.3180372603390748 0  1.99375 0.08395950269330846 0  1.459960956013612 0.3075 0  1.569025960719943 0.2986889805672169 0  1.03125 0.3278689922742084 0  1.959375 0.3126371951219512 0  1.749222215368287 0.1025 0  1.275777784631713 0.1025 0  0.9228016959331474 0.3075 0  1.000777784631713 0.1025 0  2.2 0.1025 0  1.225938124459196 0.3075 0  1.550777784631713 0.1025 0  1.44375 0.07430640243902442 0  1.16875 0.07430640243902439 0  0.7562500000000001 0.3358727844323386 0  0.89375 0 0  1.899250267340833 0.2229966846119207 0  0.61875 0.41 0  1.766482954545455 0.2934032012195123 0  1.046078563095834 0.2389031808701145 0  1.421109702350723 0.2261157654379721 0  0.07567171807980319 0.25625 0  0.2511897295290552 0.3235829392832554 0  0.07655002503762308 0.1488653460959645 0  0.1377245246847496 0.3206030474919778 0  0.6694099692696568 0.3242771941727899 0  0.9168971191497528 0.1295727156104653 0  0.7562500000000001 0 0  2.118919042110979 0.3422084711244843 0  2.13125 0 0  0.06875000000000001 0 0  1.30625 0.41 0  1.597888256393107 0.2173787389261347 0  0.34375 0.41 0  0.2493272016354703 0.08091360081773515 0  0.5588896233436766 0.3264056208677571 0  1.829299675393195 0.07400700849299596 0  0.1334079128307869 0.08523463035786674 0  1.71875 0.41 0  0.06875000000000001 0.41 0  1.16875 0.41 0  2.038220665644273 0.332420740103091 0  0.8810647413215221 0.2027360103977071 0  0.34375 0 0  0.7453891198966415 0.2471459041008237 0  0.42112093004955 0.1988123139090554 0  0.8314023090855964 0.3351170841770613 0  0.89375 0.41 0  0.7906250000000001 0.06615386481594063 0  1.452769549894695 0.1548122580621249 0  1.369219062229598 0.07430640243902442 0  1.30625 0 0  1.07420695807087 0.07430640243902439 0  1.720943423819132 0.1714577452753128 0  1.157188124459196 0.205 0  1.304056576180868 0.1714577452753128 0  1.67579304192913 0.07430640243902437 0  1.209670467133757 0.136210026696477 0  0.4312800784902823 0.08036147352247747 0  0.8723959680194693 0.07066860609690805 0  1.025335513626278 0.1700681449722324 0  0.7945632284247136 0.1940204203251442 0  0.378125 0.3452261501101892 0  0.3307109909790086 0.2037165635083759 0  0.3009701032039409 0.2702970083403109 0  0.20625 0.41 0  1.58125 0 0  0.4812500000000001 0 0  0.9838963872396855 0.2722244191167347 0  0.06772484939107212 0.3260067317374387 0  0.20625 0 0  1.58125 0.41 0  1.631724228912893 0.3381867502687533 0  1.825608881788174 0.14499488549201 0  1.85625 0 0  1.44375 0 0  1.44375 0.41 0  1.85625 0.41 0  2.13125 0.41 0  0.7562500000000001 0.41 0  0.4812500000000001 0.41 0  1.16875 0 0  1.03125 0.41 0  1.03125 0 0  1.71875 0 0  1.99375 0 0  1.99375 0.41 0  0.9408708167433545 0.0651989315768642 0  1.340625 0.3489494290853124 0  1.134375 0.3489494290853123 0  1.700180620188976 0.3438659752031281 0  0.29668452290037 0.1318471691375986 0  0.3175441051360096 0.06496934809856265 0  0.06509151636162461 0.08140814015999148 0  2.135782184673599 0.07126652247502523 0  1.668441847249787 0.2129203728327609 0  1.295782514339747 0.2378437748815763 0  1.409375 0.3520314716057996 0  2.129248544730567 0.1906135162504124 0  2.060771381434487 0.1989445750470348 0  2.013252586573865 0.1496169464686054 0  1.942766402200229 0.1734448904596831 0  1.895522487186454 0.06076163953489683 0  2.069553871656643 0.06605731020975725 0  0.4670911801404742 0.2498408582391372 0  0.7622743084658112 0.1264100838268133 0  1.274680914880868 0.3520219391081363 0  0.3148669572599245 0.3331753056385887 0  1.614713220494657 0.09473434380863296 0  1.72990325744076 0.2380068107952482 0  1.356580098625191 0.2120393231351682 0  2.034370752044885 0.2668681600792073 0  1.51768709249349 0.3426260931494756 0  1.561883724969884 0.1650446847858835 0  1.197344062229598 0.2523725417393646 0  1.804085235518364 0.3468178408964637 0  1.817887819205233 0.2589243285818559 0  1.905897727272727 0.3485060975609756 0  0.7296439733931823 0.06337466644369745 0  0.4250935971865949 0.1394919578475796 0  0.3773030136511669 0.05130372097998036 0  1.192836486056382 0.3562350748565544 0  1.1029124365364 0.226143510831178 0  1.28257088594801 0.2944411014911587 0  0.1905185804731426 0.06029880676029167 0  1.474860187679412 0.2504218616229368 0  1.406767003493824 0.2829282258560709 0  0.5209826960981064 0.2830664557824064 0  0.5131119502780163 0.3617405848213254 0  0.1948220106098172 0.3081993407644811 0  1.845656689180403 0.1998310418452388 0  2.144958525570388 0.2909790873294231 0  2.2 0.15375 0  0.8833025251326762 0.2625402923007629 0  0.171875 0.3653875762360952 0  1.57794966442982 0.3540357145964566 0  0.446875 0.366068291212731 0  0.4272051715206439 0.2891929346190664 0  1.508991196088596 0.1421783375065625 0  1.50436820029908 0.06143401634903343 0  1.223857000523521 0.08235548624535324 0  0.6137904613287555 0.3066826366281556 0  1.153316824384777 0.1289850171317838 0  0.9751573703656133 0.327632618473408 0  2.148922302309752 0.1258841779285271 0  0.9281250000000001 0.3643758685795699 0  1.621993280276081 0.2841214267927899 0  1.550118654119087 0.2461998729100966 0  1.327182649291491 0.1216967252533594 0  0.9939955742738924 0.04663549843168518 0  1.753125 0.04556020050186112 0  1.271875 0.04556020050186116 0  0.9734326767716519 0.1506854560854393 0  0.103125 0.3675775577080512 0  1.94956388244759 0.1180512551534177 0  1.949997712993411 0.04965831614304109 0  0.717433898748555 0.295596016333797 0  1.771961817615021 0.1530278789497521 0  1.909246823951428 0.2812757146784527 0  0 0.35875 0  1.050632804931928 0.1226269704412814 0  0.05695108326502596 0.2024009637347154 0  1.948575539857022 0.2445328248721197 0  1.697271520964565 0.1233917627620729 0  1.065625 0.3689344961371042 0  1.085849084308977 0.3170853572226867 0  0.1015495998772944 0.04226029099983852 0  1.577403511714593 0.05463601888079143 0  1.751571320346033 0.3651102912045228 0  2.2 0.35875 0  0.7441773632462837 0.1786786606458751 0  0 0.05125 0  1.466879772203159 0.3611261772912453 0  0.6282230348858767 0.3577675483994025 0  1.990280163552011 0.3564754268533217 0  1.17471064520912 0.2990917256188288 0  0 0.25625 0  2.2 0.25625 0  2.2 0.05125 0  0 0.15375 0  1.853978576207987 0.35875 0  1.515638456102889 0.2882700110184686 0  2.150453692751374 0.2387066338105111 0  1.323782677156475 0.04897634338873398 0  1.409375 0.03715320121951221 0  1.406484531114799 0.1087852750766809 0  1.134375 0.03715320121951219 0  0.721875 0.3729363922161693 0  0.7941695928236929 0.3696489254637395 0  0.7934827162619036 0.3013409431456604 0  1.627401732573545 0.04552157221025036 0  0.9352049974617431 0.2507047965699472 0  0.8763260682738339 0.3611103317460093 0  2.045405893604797 0.1105340662939892 0  1.255408269734577 0.1577307500159216 0  2.028125 0.03707597992059326 0  1.003030137506755 0.3689344961371042 0  1.248258025468107 0.2565907092181813 0  1.203125 0.03661323374043041 0  0.4800125512335631 0.0549472816999725 0  2.072662025974815 0.2975086504196739 0  0.240625 0.3729825336867542 0  1.113252391110535 0.10238286244357 0  1.071052763974265 0.1885202618768825 0  0.8738809401657862 0.3106483608284829 0  0.6786819423003397 0.2677558482644021 0  1.887722846421017 0.1760882698830035 0  1.472640588990488 0.1118278026240017 0  0.5843750000000001 0.41 0  1.865937103925594 0.2604137786483804 0  1.463913572748262 0.2030442564990043 0  1.376426316059077 0.3186741374914345 0  0.1038643885363755 0.2162701735320032 0  0.1769473813227781 0.1070849728467114 0  0.458787839809176 0.171541653775316 0  0.240625 0 0  0.04179569703428024 0.2877217852556549 0  0.1258346557601885 0.2699740073054968 0  1.722140693354707 0.282908100935778 0  0.41206179117512 0.2448172567039922 0  0.3702471778075604 0.2265217604228704 0  0.3714881805374215 0.1786967818665642 0  1.77397096061971 0.2481483237422926 0  2.105123889160691 0.03743885948498647 0  1.001138337938679 0.229719337663998 0  1.051242910646791 0.2854826559431138 0  1.395420985247586 0.18
[...]
<PointData  Scalars="f_43"> 
<DataArray  type="Float64"  Name="f_43"  format="ascii">1.0684617416823486e-01  2.0350539114171676e-01  9.4484914510327631e-11  3.3551992739013845e-10  7.8891391505158906e-02  8.2317355224581126e-02  6.8966960212844541e-02  6.5144950307100921e-02  1.3578965544139168e-01  1.3752047901188369e-01  8.8319350970525373e-02  6.9759245278501816e-02  -6.4283666561398816e-03  -6.5203007786810300e-03  -1.0351481116779419e-02  -1.5878278052227211e-02  3.2016497398231376e-02  -2.5604748685312522e-03  -1.4697805592833050e-02  8.6495938825189189e-02  1.5477480757482828e-01  1.5152963697680019e-01  7.4077734821646743e-02  1.1409937976611682e-02  -2.3833126372338389e-02  -3.6557869323043932e-02  -2.6208448296425085e-02  -1.2223109069010538e-02  1.5193024450323901e-02  1.1712502648119147e-01  5.3076132899881031e-03  5.7992615747349395e-02  4.7872722814780722e-02  1.0083022569117985e-01  -2.5725968335885223e-03  9.1712997652029851e-02  2.1289938945439277e-03  -4.1786007112516220e-03  4.4369990230582390e-03  7.2465060794744494e-03  7.2741623965442981e-03  1.1583256271239682e-02  1.0209212764274203e-02  3.6273977747690706e-03  3.6345866443702845e-03  9.0713430655036988e-03  5.4447823755841814e-03  -3.7516265500073336e-03  1.2481203400561552e-02  1.6465454189049338e-10  2.7226760528171767e-03  7.9899478533546869e-02  1.8121360392241081e-03  1.8152674365346506e-03  3.1705790223325767e-10  5.4463615006443439e-03  1.1204062677413303e-02  9.2236816115059215e-03  5.4436933270540977e-03  8.9349382592129323e-03  2.4509618056781676e-03  1.0564641568887888e-01  1.1312777208244795e-01  1.0561303031598775e-01  8.8196706620012298e-03  4.1601850771343643e-03  1.4732725433610091e-02  1.4082373333450035e-02  9.9079916320352276e-03  7.2729135726693640e-03  -2.9891836134412109e-03  9.0109188810518603e-02  9.8577024740409205e-02  6.9013463854828523e-03  8.2959161782106862e-03  1.0645974806370050e-02  -3.4244579146413853e-03  4.0262808896259668e-03  1.4147940686147001e-03  4.5375168979786039e-03  1.0766878257134306e-01  1.2766212614285491e-01  1.3290613598514237e-03  7.1727429044265795e-02  2.7203598965731533e-03  9.5502774969404777e-03  8.2776708692090355e-03  3.3256305638261130e-03  3.1775815491147273e-03  5.9505274875591152e-03  1.3489885328957119e-02  1.7298946824708639e-03  5.2592842658821925e-03  2.1083688916784852e-10  1.0217681958782752e-02  8.6429893194939489e-03  1.0291454165473142e-02  1.5824696796825400e-02  1.9071520112811148e-03  -7.2580874854949397e-04  3.9697026440498112e-03  2.4144796502139156e-02  5.7216498464053578e-03  7.1509961608570045e-03  1.0179725625963712e-02  1.1227469841652883e-01  8.8994514757678986e-02  1.2765581497358028e-01  1.0396165237290346e-01  1.2298440182669768e-03  -4.2371687690499881e-03  -4.2071599494938414e-03  1.0700810021730084e-03  9.0108103884677202e-04  1.2711885465641293e-01  1.0407875084821506e-02  7.9411438605299384e-03  8.6047437574234151e-02  9.4526280631160114e-02  3.3664598749319034e-02  4.8915201578356056e-03  1.1999006506451197e-01  6.3527479585559496e-03  1.0720811185620417e-01  8.1746510875954775e-03  2.1378272382260410e-03  -7.0143626459645359e-03  1.0239117426150920e-01  -3.4132854478894819e-03  9.5195202016785219e-02  2.2164330444949562e-03  2.2877784142785033e-03  -2.1078548905913903e-03  9.9936430747466290e-03  1.1643303108656881e-02  1.3079227054369600e-02  1.3462431294423677e-02  6.3251327808549907e-03  1.3120953096742162e-02  1.2133306324280866e-02  6.9306747640817661e-03  1.4455485510668758e-02  1.1558026078404239e-01  -1.8661629565465039e-03  5.8960699174271649e-03  -2.6367055184356846e-03  8.4568186256850725e-02  8.7478136816007190e-02  8.5927587143195233e-02  9.9494806078441633e-02  8.2266115921725558e-03  1.0531670234961833e-01  2.1710644270592156e-03  1.0720440779377227e-01  1.0471164573542222e-01  8.1104808618383730e-03  7.4792993091145387e-03  4.9403863550657300e-03  4.5321795693006846e-03  1.0322630337106335e-02  9.6669134282115071e-03  4.5386326365758909e-03  9.0402250501692670e-04  3.1667243422318549e-03  6.8222485737465310e-02  1.5947871594366607e-02  3.0599504574471545e-03  1.0873391161491820e-02  6.3524431948431383e-03  2.7180832201756451e-03  2.7240570365574747e-03  9.8747228524003589e-04  1.0408034483608386e-02  6.6813834678481603e-03  6.5937748989068120e-03  8.6473344321922260e-02  1.0106190231671107e-01  1.2763521994236129e-01  8.4664472064675453e-04  7.0163782180318090e-03  1.1379473770671878e-02  9.9788276421991732e-03  9.3198867289475806e-04  1.8355492318909230e-03  2.4623634800974539e-03  3.3921233211997004e-03  4.0138412235436564e-03  1.7201974597589934e-03  7.9293727892587415e-02  -5.0161006236613256e-03  1.0338921099577724e-02  8.8036501266423692e-02  7.7571850685327574e-03  6.2047932818831697e-03  1.1025506087305790e-02  2.1871458458843232e-03  8.8789739660962916e-03  8.4519391137634452e-03  1.1215600413122306e-02  5.2284280824517288e-03  5.0422993236573311e-03  3.8853185875900318e-03  -3.9512346843454983e-03  1.1748052318911748e-01  1.0567743480956004e-01  8.9429200922824855e-03  1.1085819716258783e-02  1.0763720104419842e-02  1.0555425479311617e-01  9.4748391475073818e-03  1.0139318112410551e-02  4.3899798199100913e-02  5.8336369258916651e-02  9.1333671363768937e-02  4.6753953702861513e-03  7.2485883861130723e-04  -2.1323505350657542e-10  -4.0349545133574072e-03  1.0197932947100696e-01  8.1528082399232350e-03  7.4915769608562902e-02  8.5869467460036430e-02  9.2044384467455699e-03  9.3422827783080659e-03  1.4858456659259717e-02  -1.5139663847324404e-03  1.5371442184761708e-02  3.0917873726229862e-03  6.7400598777618461e-04  3.2563639575849280e-03  7.6089121415408188e-03  8.5440359465634996e-03  1.2232715215788460e-02  6.4227046814196095e-03  5.8985712936246949e-03  1.3884733043751440e-02  -1.3958332782515192e-03  1.0631094471515537e-01  3.3025834714017870e-03  3.2960855535715023e-03  -3.9388488546707673e-03  5.6505478673053462e-03  3.8377363629178893e-03  1.0668553776048254e-01  1.0687271955167341e-02  1.1979851439619760e-01  3.3178412494793350e-03  6.6393741226908765e-03  3.8777058884542199e-03  4.9291095768014973e-03  1.2185264849189399e-01  8.2820943624891258e-03  5.9201528694079056e-03  3.3551992739013845e-10  -4.4792024836200059e-03  1.3640672878968133e-01  9.4313681295743173e-03  1.7410628410915934e-02  2.7702506804211380e-03  9.2207565573537622e-03  1.1114679029163671e-01  1.6465454189049338e-10  9.4484914510327631e-11  1.2286973491063795e-01  4.5693817836133894e-03  8.9362092680518122e-03  6.5368275350306099e-04  1.2658821677217554e-02  1.0932085167342282e-02  1.0854056542470604e-02  1.5818256558724778e-02  5.6209577980815464e-03  3.2932957483735336e-03  -6.4255296549344063e-04  7.5886231209682988e-03  -3.2474159662350694e-03  3.2629403672210793e-03  2.0389505524125114e-03  1.3174018211152964e-02  2.2688876350575415e-03  2.9706463512050433e-03  1.1274480379501581e-02  1.5423926717961939e-02  1.0793080785919076e-01  1.6820969878832285e-03  9.4640059839221038e-02  1.5249422866976409e-02  1.1106539054969678e-02  8.5706820530354164e-04  -1.2005736582937136e-02  4.1195581045526041e-03  9.7806503537249817e-03  3.5548194862420002e-02  4.4089561942340450e-03  9.7146351909055666e-03  1.0290758325466429e-02  1.2274497756309688e-01  1.0634389249536055e-01  1.1611851666202648e-01  1.0183389388511446e-01  1.0893608592622386e-01  1.0519149087057832e-01  6.3053883018582314e-03  9.0215664570923434e-02  9.0208919322774556e-02  9.1433982918892889e-02  5.6239369504747288e-03  1.2507977738015297e-03  2.3397195714675917e-03  5.0528473227875676e-03  1.0671568909088278e-02  2.2719051034329994e-03  8.1441433345540867e-02  7.9052134887862766e-03  1.2652359801752719e-01  1.3132539911853561e-01  -4.5330254492614436e-03  -5.0693076509718531e-03  9.2143548715552179e-02  5.1211472044617821e-03  2.7656519499978608e-03  8.8120795661139242e-02  8.3589182936432124e-02  8.4495789331274024e-02  4.9354855116495733e-04  1.3630540449389090e-03  1.6445855313730049e-03  -6.3713067993608329e-03  -1.4427086495134338e-04  7.6860425749265956e-03  1.0630737623273351e-02  5.3656955627197243e-03  3.9477838562634988e-02  1.3880416911702151e-01  1.0687981994220674e-01  2.5611309697020313e-03  1.0522896648432738e-02  -3.2605568441003738e-03  8.8658734562458041e-02  9.0345155513784275e-02  1.3616377960786104e-02  9.7532624325152029e-03  7.5097976744793798e-03  8.5336172127608283e-03  1.0948710712897268e-02  6.8209267829307503e-03  6.4948690927110579e-03  5.3517557479097842e-04  5.3608833458769695e-04  1.2976279675517288e-01  1.3255360597451210e-01  1.0687419182768948e-01  1.1299257379842616e-01  -1.8655899209993178e-03  -1.8279223718023099e-03  7.4515784390866468e-03  5.3118093394169145e-03  4.3788353470886532e-03  8.8087519467487913e-02  8.0842525732343185e-02  1.0092325538332766e-01  8.7194629271730075e-03  3.3483899050905223e-03  -4.5071784345338305e-03  1.3676404227714786e-01  -2.3151989604685988e-03  4.9954055442746129e-03  6.1229971498083175e-03  7.0656851911988020e-03  1.0891724655783519e-01  1.8906698478000476e-03  9.6435211293193462e-02  8.6368881210734841e-02  8.5320555406094480e-03  9.8299019916599940e-03  8.8360750324226536e-02  1.3969454736900394e-03  9.9182082486077485e-03  -7.0147310521421558e-03  1.0254717226703763e-01  8.0265133728329233e-03  -1.9132369504493260e-03  1.0702070609446838e-01  1.0123216029036587e-01  7.7770651199460764e-02  1.2811141376005322e-03  -3.5718995632417588e-04  1.1032301323761599e-02  1.4484321476375564e-02  5.1591166269329344e-04  1.2719301234076311e-01  1.0597287334386548e-02  7.9936292002917825e-02  9.5129624661890358e-02  -2.2012504924005427e-03  -4.8867027969224106e-03  2.7795790877969016e-03  5.3733329031007936e-02  4.0857125029399423e-03  9.5645630736962264e-02  4.5181417431952725e-03  4.0785856713676794e-03  3.5791586712047691e-03  8.5905373472570240e-02  9.2168884433666380e-03  7.9491779102113178e-03  6.4350654234078082e-03  1.0061605724516995e-02  1.4672713259976908e-02  7.0686018016958094e-03  7.2372262671787689e-03  8.4948637000629157e-02  1.1438459290798483e-01  2.1532548728521918e-03  1.0589260982855623e-02  8.7155837340676959e-02  2.1597089708289205e-03  1.2348619052766946e-01  5.5633542690597133e-03  -2.6726974788095362e-03  -4.2338945127989736e-03  2.3609239977853042e-02  9.4294397167676482e-03  -1.2158584482918346e-02  2.2066329367878453e-03  9.7863887813416772e-03  9.0114313796048097e-03  1.0707975932344306e-01  -8.7436603162134162e-04  3.0924517550628685e-03  3.0036960814516173e-03  -3.5621054403556494e-03  8.9715351129571984e-03  1.3547431930756516e-02  -2.2483969878768733e-03  -3.1659421938335834e-03  -2.9840142373914282e-03  5.9743559542728827e-03  1.2070932590812001e-02  6.1718690408028342e-03  1.2770647560275490e-02  1.1500292710750407e-02  1.1884255913761715e-02  6.7895716621392413e-03  1.1732381498203786e-02  2.9836908959041475e-03  8.2158938360775952e-02  1.3961654775552295e-02  1.5286222371676988e-02  7.8562728758236923e-03  7.0171500045864291e-03  -3.1303577736714132e-03  -1.9255186339389603e-03  7.5339313281071298e-03  7.9924062811466846e-03  8.7310647329454753e-03  8.0425350984061436e-02  8.3255839286521111e-02  3.2696206013447396e-03  4.9882298992896803e-03  8.6838340602185066e-02  1.8086559148909680e-03  2.2811248916060995e-03  1.2808013295028264e-02  1.2049128849367860e-03  4.0482800665736646e-03  -2.6173330845587232e-03  1.0938260206621499e-03  4.8451207050214859e-04  5.6513183898348526e-03  8.7636921429915336e-03  7.2194035292675379e-03  5.7694859521418285e-03  1.7118956517690626e-04  -1.3529151065519243e-03  1.3172874674159038e-01  1.0839365562450790e-01  1.0911252900674429e-02  4.9957454667421746e-03  1.0323225187491518e-01  -7.3505528698893400e-03  4.6360672072369262e-04  1.0544316492917072e-03  3.2063731702167944e-03  1.2062652973222501e-03  1.2440810099632955e-02  4.5063882771539752e-03  5.2501425343927507e-03  -4.1188865092691542e-03  3.0248378479514277e-03  -7.9207080880027807e-03  2.2150640878122692e-02  3.4434108295600852e-03  7.8063090739559739e-04  4.5359511155996859e-03  7.7651780251414473e-03  6.8262828428602654e-03  1.0399933544905295e-02  1.0375219896119022e-02  1.0212442722636186e-02  7.5109670677804170e-03  9.3724243441740088e-02  1.0353258631147472e-01  1.0194044360284637e-02  1.0309991003260709e-03  9.2305534814102336e-03  4.5624456091999483e-03  1.3387595548807826e-02  1.4688034968955691e-02  -1.0007294666357336e-03  1.0016776232023775e-02  6.7968709081915775e-03  2.7276239584791162e-03  2.2556115644450942e-03  1.0578903715787111e-02  3.1651244354918805e-03  1.0272062441950615e-02  5.9217350556103531e-03  9.8681965807441235e-02  1.0482625873489163e-01  1.5840994107839661e-02  1.2295640961268669e-02  4.5566050279287476e-04  1.3511718341601554e-03  5.0833850251195325e-03  1.6032858482687685e-02  1.0927332304752926e-02  9.3130189788687093e-03  5.9008784493378283e-03  3.9648394215858153e-03  5.8971270226661661e-03  2.3943672908777109e-03  9.9684883925088008e-03  4.5583947274382839e-04  1.0650005765781838e-01  7.5185394087800145e-02  1.0406313988952778e-01  9.5421920680984290e-02  1.1704470754396193e-01  1.0694834202119845e-01  1.0318941626612683e-01  1.0704140513192290e-01  2.1652950766370858e-03  2.3634900121396948e-03  5.9272639688301099e-02  1.4913829641475104e-02  2.2521210034472374e-03  1.5496014577086102e-02  2.5508823505526468e-03  7.7496617635463352e-03  3.1724510214997757e-03  1.3905143051655588e-02  7.5229775306315536e-03  2.2671613577294691e-03  3.1750408339137719e-03  2.3685116193254757e-03  6.3664860804251875e-03  8.9600239099817833e-02  7.0228201873305279e-02  4.6768803783178520e-02  1.5458860631141776e-02  2.4965745189836487e-03  1.2433449220328574e-01  1.0283504783471436e-02  1.4603650108674052e-02  2.0512470564245759e-03  2.9049837022934209e-02  8.8777004252143896e-02  1.1002789430747317e-02  1.0899749667595923e-02  8.0749326372970887e-02  8.3352289870346433e-03  8.6499253666528740e-03  9.1661777022590159e-03  3.8524033795646244e-03  9.7082280013230417e-03  9.8112177244686453e-03  6.5799030473937190e-03  4.0619406684665113e-03  1.0170836554972001e-02  6.5134759465580424e-03  4.8970000293487416e-03  7.0154517386647958e-03  1.1589668509357508e-02  3.6176969361745763e-03  9.1231593917305651e-03  7.9886688704328117e-03  1.8264536528632979e-03  1.4874242948041141e-03  1.0001768531600255e-01  6.7514469572527061e-02  -7.0974609290543689e-03  -2.2162828102225375e-03  1.1174378361535097e-02  1.0174382365318061e-02  3.6366325095861509e-03  3.7669925561501796e-03  1.5042365163773000e-03  1.3722250262546287e-02  2.1169700775440421e-03  5.2210367166814417e-03  1.0222457726788518e-01  4.8331842485510841e-03  6.6288759282681960e-03  4.7152739130504199e-03  3.1494729872946436e-03  1.0604322452685583e-01  4.1771757994988511e-04  -2.3296043874713921e-03  8.3650553380049762e-03  8.3789521451024085e-02  -2.3745537931205030e-02  8.2186839772952266e-03  7.3791253174347385e-03  3.8589409890081947e-03  1.2669239643529431e-01  8.3186471139277633e-03  -3.3253192815079612e-03  7.9290406564479256e-03  -5.7899930168180958e-03  1.0597287982498020e-01  1.1229231709775142e-01  8.8289550469000944e-03  1.2098342370788759e-02  1.2897851567788476e-01  1.0704607079685621e-01  4.3130925246420947e-03  -2.1329467113920327e-03  3.4206786098904085e-03  1.3305379751531846e-02  3.2295871414889793e-03  8.4724444007036898e-03  5.1331053130788621e-03  9.4288137438106896e-03  5.9783884754432137e-03  1.1193121193895111e-01  9.9074248959625424e-02  1.5746809814917939e-02  1.1811283440976587e-02  1.0751181300794723e-02  1.1981862622267574e-02  7.0973803569931515e-03  9.7955648758654198e-03  1.2769066299210576e-02  5.3659376550104915e-03  4.7995482499488045e-03  1.4069083641809600e-03  9.4514980296677639e-03  2.9799531479649324e-03  1.5686577901891668e-01  1.0675246040474984e-01  8.7666236083180898e-03  3.9743408602188673e-03  -8.1749163476939665e-03  1.0007176094756913e-01  1.0549801982395477e-02  8.5124928854935777e-03  1.0871052793263455e-01  8.2970813198930432e-02  2.8974468459817644e-03  1.0881825984412988e-01  8.7558060623465148e-02  1.0342792395952578e-02  -1.0630634322993915e-02  1.5736913087570671e-02  5.0803528603845037e-02  1.4145966958956622e-02  4.7656807560465479e-03  -3.8727048322941605e-03  1.3201676801207923e-03  1.1953989294208668e-01  4.9154084506120490e-03  1.1699568710708989e-02  7.5513444028524248e-03  4.2433548334725561e-03  1.6465454189049338e-10  8.8977048461810829e-02  -7.2918532883304329e-04  -6.0919167268986534e-03  8.9913740849564099e-03  3.1580524310062122e-03  7.2718819924751750e-03  1.0887146683993230e-01  1.2351448867272684e-01  4.6714644236225229e-04  1.7932042489322115e-03  8.4499622811567365e-02  9.8495224936171910e-02  1.2089334433691970e-01  4.0135514818006608e-03  1.0562637508893294e-02  9.8022171922924391e-03  9.4494725718200674e-03  9.2777675310163708e-03  1.0403062290064432e-02  4.3547064747057294e-03  5.9681777654634251e-03  1.1261412821755967e-01  1.0426481055210369e-02  1.0100053711607781e-02  -4.2908934705461364e-03  4.6785009436934109e-02  8.9113513444396622e-02  8.0919708550680397e-02  4.2775501613681183e-03  1.1105179105618808e-01  1.3432947290899711e-02  5.7393454322774940e-03  -5.7053507166480852e-03  9.4561542565547840e-03  9.5292622039728405e-03  1.2439207012864863e-02  2.1083688916784852e-10  1.3320128600850131e-01  8.6765062227026110e-02  1.0748701314404292e-02  1.1127107991502147e-02  -6.1242483478551654e-03  1.0289387612929871e-02  6.2058015883195488e-03  1.0193962425568659e-01  9.1286178446989288e-02  1.6838299181442695e-02  5.9734433630963639e-03  6.3990457184537247e-02  8.5216213477683558e-03  2.5394601146774350e-03  9.6022586956862836e-03  7.3819678828321630e-03  2.9402849677868045e-02  4.1023421239967210e-03  4.8321549190986895e-03  5.6741698049313652e-03  8.3558546567225208e-04  9.2046936601515280e-04  3.8323570116674625e-04  7.9587694315526328e-02  5.0741298497181356e-02  4.3259565029251925e-03  2.8107317263645158e-03  -6.9755070983554815e-03  2.9788968039421871e-03  1.3256976182797696e-02  6.1271056873619433e-03  5.6186592325819266e-03  1.1545959606613894e-01  8.0574565040693047e-03  1.5032871787767608e-02  1.5020922724406706e-02  1.0680332862337653e-01  1.1439865824532634e-02  8.2121467587378857e-02  -5.6172819626860290e-03  1.0236450179784366e-01  9.6626553376319303e-03  1.3471112182185529e-02  -2.9648175335358828e-03  8.8251259633453941e-02  -3.5044862451210565e-03  5.5005671085803518e-03  1.6465454189049338e-10  3.0826439992684622e-03  2.6089541927189750e-03  8.1837891306809716e-03  7.7900026023388948e-03  8.9144470620771785e-02  8.6534346614934768e-02  3.6878901670444790e-03  -6.2517488047762206e-04  3.4175596028275497e-03  1.4556626069586391e-03  8.8318973563571469e-03  8.3459328804009695e-03  8.2265339039906613e-03  7.3730228701677350e-02  1.0461494045842826e-02  -2.8293038208371600e-03  1.5444619711325524e-02  7.6952898593560023e-03  4.0316614566622165e-03  6.5211676466668681e-03  4.0523532799292949e-03  5.0659990945673408e-03  5.5546616456876455e-03  3.6528198979005879e-03  3.4865602810247231e-03  9.9416326524759568e-02  1.0906751008279730e-01  6.2366010088331647e-03  1.1621158593744542e-01  1.0508297580297608e-01  5.8203892727747885e-03  -3.7764304616634474e-03  2.3544076184685465e-03  3.5019878688428673e-03  8.7005057631651863e-03  -3.5621541831224214e-03  9.8721721111536785e-03  7.7217803685086517e-02  4.2554808260120191e-03  1.0529897245288550e-02  1.3142707681165634e-02  8.0062725910475377e-02  -1.6699936214522905e-03  6.7241707143914009e-03  1.4666128727923715e-02  1.1758347107947624e-01  1.0630934128870202e-01  7.9548318049495904e-03  -2.8545781166266293e-03  1.1680484436772358e-02  7.9278765979155456e-03  1.1383131591227573e-02  1.0668665980869484e-01  5.9384533146326626e-03  9.1556802021744946e-02  8.7339926894300854e-03  6.8498481971380060e-02  8.9770866856529762e-04  5.3116650752999340e-03  6.7145448763284137e-03  1.0668560355844375e-01  1.0496602454892609e-02  9.4868698889017666e-03  9.4328433448619322e-03  9.1573324083735683e-03  1.