<?xml version="1.0"?>
<VTKFile type="UnstructuredGrid"  version="0.1"  >
<UnstructuredGrid>
<Piece  NumberOfPoints="1404" NumberOfCells="2604">
<Points>
<DataArray  type="Float64"  NumberOfComponents="3"  format="ascii">0 0.41 0  0 0 0  2.2 0 0  2.2 0.41 0  0.2353553390593274 0.2353553390593274 0  0.25 0.2 0  0.2353553390593274 0.1646446609406726 0  0.2 0.15 0  0.1646446609406726 0.1646446609406726 0  0.15 0.2 0  0.1646446609406726 0.2353553390593274 0  0.2 0.25 0  0.6923879532511287 0.188268343236509 0  0.7 0.15 0  0.6923879532511287 0.1117316567634909 0  0.6707106781186547 0.07928932188134523 0  0.6382683432365089 0.05761204674887133 0  0.6 0.04999999999999999 0  0.5617316567634909 0.05761204674887134 0  0.5292893218813453 0.07928932188134524 0  0.5076120467488713 0.111731656763491 0  0.5 0.15 0  0.5076120467488713 0.188268343236509 0  0.5292893218813453 0.2207106781186547 0  0.561731656763491 0.2423879532511287 0  0.6 0.25 0  0.6382683432365089 0.2423879532511287 0  0.6707106781186547 0.2207106781186547 0  1.1 0 0  0 0.205 0  1.1 0.41 0  0.55 0 0  0.55 0.41 0  0.275 0 0  0.8250000000000001 0 0  0.275 0.41 0  0.8250000000000001 0.41 0  0.6875 0 0  0.61875 0 0  1.65 0.41 0  1.65 0 0  1.375 0 0  1.375 0.41 0  1.925 0 0  1.925 0.41 0  1.5125 0.205 0  1.7875 0.205 0  0.9625000000000001 0.205 0  1.2375 0.205 0  2.2 0.205 0  1.99375 0.2152743902439024 0  0.4125 0.41 0  2.0625 0 0  2.0625 0.41 0  2.2 0.3075 0  1.7875 0.41 0  1.375 0.1486128048780488 0  1.5125 0 0  1.7875 0 0  1.5125 0.41 0  0.9625000000000001 0.41 0  0.4125 0 0  0.1375 0 0  0.1375 0.41 0  0.6875 0.41 0  0.9625000000000001 0 0  1.2375 0 0  1.1 0.1486128048780488 0  1.2375 0.41 0  1.65 0.1486128048780487 0  0.823495464168302 0.2603780552348366 0  0.3738707794507017 0.2720196349488618 0  0.3662291281331582 0.1311456406657909 0  1.676715909090909 0.2793064024390244 0  1.126715909090909 0.2793064024390244 0  1.348284090909091 0.2793064024390244 0  0.8287581077665108 0.1302150898054257 0  1.894702181800738 0.1282910975492754 0  2.092797818199262 0.1282910975492754 0  1.85625 0.3075 0  0 0.3075 0  0 0.1025 0  2.099172119769978 0.25625 0  0.4752414543992246 0.3180372603390748 0  1.99375 0.08395950269330846 0  1.459960956013612 0.3075 0  1.569025960719943 0.2986889805672169 0  1.03125 0.3278689922742084 0  1.959375 0.3126371951219512 0  1.749222215368287 0.1025 0  1.275777784631713 0.1025 0  0.9228016959331474 0.3075 0  1.000777784631713 0.1025 0  2.2 0.1025 0  1.225938124459196 0.3075 0  1.550777784631713 0.1025 0  1.44375 0.07430640243902442 0  1.16875 0.07430640243902439 0  0.7562500000000001 0.3358727844323386 0  0.89375 0 0  1.899250267340833 0.2229966846119207 0  0.61875 0.41 0  1.766482954545455 0.2934032012195123 0  1.046078563095834 0.2389031808701145 0  1.421109702350723 0.2261157654379721 0  0.07567171807980319 0.25625 0  0.2511897295290552 0.3235829392832554 0  0.07655002503762308 0.1488653460959645 0  0.1377245246847496 0.3206030474919778 0  0.6694099692696568 0.3242771941727899 0  0.9168971191497528 0.1295727156104653 0  0.7562500000000001 0 0  2.118919042110979 0.3422084711244843 0  2.13125 0 0  0.06875000000000001 0 0  1.30625 0.41 0  1.597888256393107 0.2173787389261347 0  0.34375 0.41 0  0.2493272016354703 0.08091360081773515 0  0.5588896233436766 0.3264056208677571 0  1.829299675393195 0.07400700849299596 0  0.1334079128307869 0.08523463035786674 0  1.71875 0.41 0  0.06875000000000001 0.41 0  1.16875 0.41 0  2.038220665644273 0.332420740103091 0  0.8810647413215221 0.2027360103977071 0  0.34375 0 0  0.7453891198966415 0.2471459041008237 0  0.42112093004955 0.1988123139090554 0  0.8314023090855964 0.3351170841770613 0  0.89375 0.41 0  0.7906250000000001 0.06615386481594063 0  1.452769549894695 0.1548122580621249 0  1.369219062229598 0.07430640243902442 0  1.30625 0 0  1.07420695807087 0.07430640243902439 0  1.720943423819132 0.1714577452753128 0  1.157188124459196 0.205 0  1.304056576180868 0.1714577452753128 0  1.67579304192913 0.07430640243902437 0  1.209670467133757 0.136210026696477 0  0.4312800784902823 0.08036147352247747 0  0.8723959680194693 0.07066860609690805 0  1.025335513626278 0.1700681449722324 0  0.7945632284247136 0.1940204203251442 0  0.378125 0.3452261501101892 0  0.3307109909790086 0.2037165635083759 0  0.3009701032039409 0.2702970083403109 0  0.20625 0.41 0  1.58125 0 0  0.4812500000000001 0 0  0.9838963872396855 0.2722244191167347 0  0.06772484939107212 0.3260067317374387 0  0.20625 0 0  1.58125 0.41 0  1.631724228912893 0.3381867502687533 0  1.825608881788174 0.14499488549201 0  1.85625 0 0  1.44375 0 0  1.44375 0.41 0  1.85625 0.41 0  2.13125 0.41 0  0.7562500000000001 0.41 0  0.4812500000000001 0.41 0  1.16875 0 0  1.03125 0.41 0  1.03125 0 0  1.71875 0 0  1.99375 0 0  1.99375 0.41 0  0.9408708167433545 0.0651989315768642 0  1.340625 0.3489494290853124 0  1.134375 0.3489494290853123 0  1.700180620188976 0.3438659752031281 0  0.29668452290037 0.1318471691375986 0  0.3175441051360096 0.06496934809856265 0  0.06509151636162461 0.08140814015999148 0  2.135782184673599 0.07126652247502523 0  1.668441847249787 0.2129203728327609 0  1.295782514339747 0.2378437748815763 0  1.409375 0.3520314716057996 0  2.129248544730567 0.1906135162504124 0  2.060771381434487 0.1989445750470348 0  2.013252586573865 0.1496169464686054 0  1.942766402200229 0.1734448904596831 0  1.895522487186454 0.06076163953489683 0  2.069553871656643 0.06605731020975725 0  0.4670911801404742 0.2498408582391372 0  0.7622743084658112 0.1264100838268133 0  1.274680914880868 0.3520219391081363 0  0.3148669572599245 0.3331753056385887 0  1.614713220494657 0.09473434380863296 0  1.72990325744076 0.2380068107952482 0  1.356580098625191 0.2120393231351682 0  2.034370752044885 0.2668681600792073 0  1.51768709249349 0.3426260931494756 0  1.561883724969884 0.1650446847858835 0  1.197344062229598 0.2523725417393646 0  1.804085235518364 0.3468178408964637 0  1.817887819205233 0.2589243285818559 0  1.905897727272727 0.3485060975609756 0  0.7296439733931823 0.06337466644369745 0  0.4250935971865949 0.1394919578475796 0  0.3773030136511669 0.05130372097998036 0  1.192836486056382 0.3562350748565544 0  1.1029124365364 0.226143510831178 0  1.28257088594801 0.2944411014911587 0  0.1905185804731426 0.06029880676029167 0  1.474860187679412 0.2504218616229368 0  1.406767003493824 0.2829282258560709 0  0.5209826960981064 0.2830664557824064 0  0.5131119502780163 0.3617405848213254 0  0.1948220106098172 0.3081993407644811 0  1.845656689180403 0.1998310418452388 0  2.144958525570388 0.2909790873294231 0  2.2 0.15375 0  0.8833025251326762 0.2625402923007629 0  0.171875 0.3653875762360952 0  1.57794966442982 0.3540357145964566 0  0.446875 0.366068291212731 0  0.4272051715206439 0.2891929346190664 0  1.508991196088596 0.1421783375065625 0  1.50436820029908 0.06143401634903343 0  1.223857000523521 0.08235548624535324 0  0.6137904613287555 0.3066826366281556 0  1.153316824384777 0.1289850171317838 0  0.9751573703656133 0.327632618473408 0  2.148922302309752 0.1258841779285271 0  0.9281250000000001 0.3643758685795699 0  1.621993280276081 0.2841214267927899 0  1.550118654119087 0.2461998729100966 0  1.327182649291491 0.1216967252533594 0  0.9939955742738924 0.04663549843168518 0  1.753125 0.04556020050186112 0  1.271875 0.04556020050186116 0  0.9734326767716519 0.1506854560854393 0  0.103125 0.3675775577080512 0  1.94956388244759 0.1180512551534177 0  1.949997712993411 0.04965831614304109 0  0.717433898748555 0.295596016333797 0  1.771961817615021 0.1530278789497521 0  1.909246823951428 0.2812757146784527 0  0 0.35875 0  1.050632804931928 0.1226269704412814 0  0.05695108326502596 0.2024009637347154 0  1.948575539857022 0.2445328248721197 0  1.697271520964565 0.1233917627620729 0  1.065625 0.3689344961371042 0  1.085849084308977 0.3170853572226867 0  0.1015495998772944 0.04226029099983852 0  1.577403511714593 0.05463601888079143 0  1.751571320346033 0.3651102912045228 0  2.2 0.35875 0  0.7441773632462837 0.1786786606458751 0  0 0.05125 0  1.466879772203159 0.3611261772912453 0  0.6282230348858767 0.3577675483994025 0  1.990280163552011 0.3564754268533217 0  1.17471064520912 0.2990917256188288 0  0 0.25625 0  2.2 0.25625 0  2.2 0.05125 0  0 0.15375 0  1.853978576207987 0.35875 0  1.515638456102889 0.2882700110184686 0  2.150453692751374 0.2387066338105111 0  1.323782677156475 0.04897634338873398 0  1.409375 0.03715320121951221 0  1.406484531114799 0.1087852750766809 0  1.134375 0.03715320121951219 0  0.721875 0.3729363922161693 0  0.7941695928236929 0.3696489254637395 0  0.7934827162619036 0.3013409431456604 0  1.627401732573545 0.04552157221025036 0  0.9352049974617431 0.2507047965699472 0  0.8763260682738339 0.3611103317460093 0  2.045405893604797 0.1105340662939892 0  1.255408269734577 0.1577307500159216 0  2.028125 0.03707597992059326 0  1.003030137506755 0.3689344961371042 0  1.248258025468107 0.2565907092181813 0  1.203125 0.03661323374043041 0  0.4800125512335631 0.0549472816999725 0  2.072662025974815 0.2975086504196739 0  0.240625 0.3729825336867542 0  1.113252391110535 0.10238286244357 0  1.071052763974265 0.1885202618768825 0  0.8738809401657862 0.3106483608284829 0  0.6786819423003397 0.2677558482644021 0  1.887722846421017 0.1760882698830035 0  1.472640588990488 0.1118278026240017 0  0.5843750000000001 0.41 0  1.865937103925594 0.2604137786483804 0  1.463913572748262 0.2030442564990043 0  1.376426316059077 0.3186741374914345 0  0.1038643885363755 0.2162701735320032 0  0.1769473813227781 0.1070849728467114 0  0.458787839809176 0.171541653775316 0  0.240625 0 0  0.04179569703428024 0.2877217852556549 0  0.1258346557601885 0.2699740073054968 0  1.722140693354707 0.282908100935778 0  0.41206179117512 0.2448172567039922 0  0.3702471778075604 0.2265217604228704 0  0.3714881805374215 0.1786967818665642 0  1.77397096061971 0.2481483237422926 0  2.105123889160691 0.03743885948498647 0  1.001138337938679 0.229719337663998 0  1.051242910646791 0.2854826559431138 0  1.395420985247586 0.18
[...]
<PointData  Scalars="f_43"> 
<DataArray  type="Float64"  Name="f_43"  format="ascii">1.0792992776771504e-01  2.0433631153191828e-01  3.9189550937229970e-12  -3.2436792534248457e-11  8.0370755680650469e-02  8.3541048874396548e-02  7.0147163612304483e-02  6.6420178264821550e-02  1.3684006290681841e-01  1.3836763130812552e-01  8.9255193921227494e-02  7.1128863450702878e-02  -4.7589450784770613e-03  -3.5378388183780213e-03  -7.3774235852952256e-03  -1.4324354197973265e-02  3.5339466027337181e-02  -6.2958061215911037e-03  -2.1084323886981053e-02  8.7347553086587482e-02  1.5898810383598694e-01  1.5172707278088651e-01  7.3936459704404253e-02  1.5325645538746435e-02  -1.9754582420120650e-02  -3.4071451900964000e-02  -2.4821240308434953e-02  -1.1149409439414294e-02  -1.9688279829169980e-03  1.1807598735664475e-01  2.5789207468558013e-03  5.7704167310185843e-02  4.7347890686017691e-02  1.0120545084755009e-01  -1.0743079809848257e-03  9.2774130620758802e-02  3.0218069289767330e-04  -3.2104183542686318e-03  3.3820338000898399e-03  6.0676981180442105e-03  7.4062779263364114e-03  1.0879701379413603e-02  1.3965563883784062e-03  3.1582015327176051e-03  3.7075863239923856e-03  5.3803113021556213e-03  5.1491793838244846e-03  1.8017441038057794e-03  -1.0316824996172839e-03  -3.2845250914906922e-11  2.5905720638436732e-03  8.0346790593528186e-02  1.6419020884424248e-03  1.7882900022056598e-03  4.2418289754184232e-11  5.6121709753467397e-03  6.7804695282975168e-03  1.1833266853803467e-02  4.7013307337324447e-03  2.9392015826857506e-03  1.2736471343191798e-03  1.0638452787836021e-01  1.1386353451669282e-01  1.0690275668594477e-01  7.8634146237577928e-03  -3.3918059213054508e-04  7.3415860709921264e-04  -1.6775678913627412e-03  2.7832332111734676e-03  6.8799154801625169e-03  1.3071906867021406e-03  9.1333665287891580e-02  9.9449790804413019e-02  6.1922065574927417e-03  1.4858199123607843e-03  2.1216810463594742e-03  9.2265582358990828e-04  3.5716101253950062e-03  1.3079481515902848e-03  4.6537728951967219e-03  1.0871466964580459e-01  1.2853431916170771e-01  1.2761093509165472e-03  7.1803796483211405e-02  2.4344564724948017e-03  1.1030055620146091e-03  4.1845095420396635e-03  2.4047623155683722e-03  3.1839560333614698e-03  5.2856271782987310e-03  6.0060380234622755e-04  1.9969491532971528e-03  -2.6152425427178403e-05  1.7213893987501841e-13  3.2123488313191041e-03  1.0058539118342676e-02  1.2170613056012171e-02  -2.4917466343993898e-03  1.2578819619764475e-03  -2.6882327907337672e-04  3.8183871707172055e-03  2.3414708955848022e-02  5.7862888203148114e-03  8.6408139500406868e-04  3.3843524680507988e-03  1.1326456855261917e-01  9.0207667480197526e-02  1.2854898335166329e-01  1.0508474250977332e-01  1.6922597504022113e-03  9.9384814468786377e-04  -3.0072385484689666e-03  1.0415795754857725e-03  8.3178889027492244e-04  1.2792978393286195e-01  2.1687373454081626e-03  5.9130210456483775e-03  8.6727740280808638e-02  9.5156695835816041e-02  3.3987996958430737e-02  4.2021886544324656e-03  1.2082063546579341e-01  6.1941193946181659e-03  1.0831799658662562e-01  2.8797721857938604e-03  2.1095459594565220e-03  2.3283933517020861e-03  1.0273952576631154e-01  -2.9137777655267503e-03  9.6292465435316332e-02  1.3139126677333909e-03  5.8137945163256710e-04  -3.3421782946325344e-04  8.7171359863007416e-03  9.1550813701757761e-03  5.8937250230566181e-03  -1.3291663754675419e-03  5.8070209084607393e-03  -1.8356127290123838e-03  1.6051799939494780e-03  6.7589477290715587e-03  -3.0692819225601386e-03  1.1694047630049687e-01  2.9599393356360330e-04  4.0945932250137406e-04  3.7083247329076550e-04  8.5175680290205308e-02  8.8783475972022310e-02  8.7332273652621167e-02  1.0082633982167780e-01  9.5868974104209130e-03  1.0644711174135379e-01  1.9577140324155947e-03  1.0825631625646864e-01  1.0528969576901116e-01  4.8515566088846388e-03  5.7204182628182026e-03  4.3963536992587928e-03  3.8842602410973362e-03  1.2851051863359445e-02  1.4823745930613822e-03  4.7019557940707725e-03  8.8174163424298150e-04  1.7201093472299146e-03  6.8286308847464908e-02  -1.8514759556525623e-03  1.9989436009021843e-03  -1.0798206339418617e-03  5.7985936539666624e-03  2.4203280363978667e-03  2.7277053328012692e-03  1.3166630603975263e-04  2.0736677666142837e-03  3.3118094372316187e-03  6.2092857792335303e-03  8.7447495911523690e-02  1.0134478646632962e-01  1.2848254134797482e-01  7.7981534023086432e-04  6.2466243306912445e-03  1.8674759489616824e-03  1.2124280057269773e-03  8.7764585455529331e-04  1.7320206135468471e-03  2.2646205569767952e-03  3.1340471251639552e-03  3.4723161177423051e-03  1.5635732476813034e-03  8.0965519717581022e-02  -1.9525301948208099e-03  3.0057051302918615e-03  8.9058798515953622e-02  8.3083144634796893e-03  5.9327301793520417e-03  3.4499477085153472e-03  2.1233514953496345e-03  2.6279103078894052e-03  7.5923540422080226e-03  5.1887445561099143e-04  5.4031112890027874e-03  5.0375521385049235e-03  3.9793289631559255e-03  -2.0797667963463489e-03  1.1800321518947070e-01  1.0611399699126144e-01  3.4283585062051011e-03  -4.1287945275941129e-04  2.8686036037119363e-03  1.0624203114903062e-01  2.4312850421323194e-03  1.2703262808147883e-03  4.5729378175138662e-02  5.8169864727498265e-02  9.2534873194883918e-02  4.4024860573987036e-03  6.9700499431225751e-04  -7.4780848963952443e-11  2.3038593259459496e-03  1.0327376790775639e-01  4.5005846899875438e-03  7.5177480387324705e-02  8.6567101768457541e-02  9.3109477451774683e-03  1.1916349972754738e-02  -1.6610889559709840e-03  -3.7594661609962989e-05  -3.0498579131789925e-03  2.0714500182607873e-03  6.2764501380954609e-04  1.4567186504725875e-03  5.6040354310502877e-03  4.2931090100134985e-03  4.2439980286377698e-03  -3.5004033113156702e-04  5.2323687660221141e-03  2.2956445313642945e-03  8.4874524313942464e-04  1.0745922376245964e-01  2.9515557383940662e-03  2.8939596054244460e-03  -3.0234003754305849e-03  5.0840835700606086e-03  3.8461938372674150e-03  1.0776703778181272e-01  -6.7558063202143752e-04  1.2073737667065687e-01  3.2269728408372573e-03  6.1660805558099207e-03  2.6913587644513091e-03  2.6274266777436845e-03  1.2264776032250442e-01  9.8049436953697288e-03  5.9577447478313802e-03  -3.2436792534248457e-11  -2.4784456181601361e-03  1.3725074507972979e-01  1.5965847539207178e-03  1.7051068788420373e-02  2.7750628658468513e-03  2.6904092498606065e-03  1.1214703151169343e-01  -3.2845250914906922e-11  3.9189550937229970e-12  1.2377784431850150e-01  4.7293283479370000e-03  2.4574475829814086e-03  6.2246883103104762e-04  6.3375900094321033e-03  1.1831395430866072e-02  1.0145727512015972e-02  -2.0059751526359535e-03  4.3225725866270805e-03  1.3616559552570983e-03  6.9881050681627624e-04  8.1869891081623285e-03  2.2990494736839944e-03  1.1743189981769436e-03  1.8604906218535296e-03  -1.4137632004406829e-03  2.0350807488687564e-03  2.1021360236314151e-03  1.6091414777981855e-03  -1.1518488772345532e-03  1.0953136157339032e-01  1.6370744252063472e-03  9.5886165517026820e-02  -2.1845021642342261e-03  -3.6500002980895314e-04  1.7414128744388734e-03  -1.0734481070880125e-02  3.7922010949432857e-03  1.1166265013382930e-02  3.4874256762092347e-02  4.3948777030885901e-03  5.1721054594595041e-03  1.4645838310023960e-03  1.2369401099636312e-01  1.0724489475735323e-01  1.1617699139043373e-01  1.0230775754444642e-01  1.0995849463534657e-01  1.0620700725468744e-01  6.1310861178025975e-03  9.1683412690722887e-02  9.1784968405922734e-02  9.2823353567402581e-02  5.5355689674513606e-03  1.1416521155912804e-03  1.5153212730226410e-03  1.7460951359621545e-03  5.4549651611142270e-03  2.2535964875177658e-03  8.2781789245787815e-02  7.7981028493794942e-03  1.2740245997009314e-01  1.3222499563893353e-01  1.7665123914082364e-03  1.4775018100148709e-03  9.2924545042983447e-02  5.2572786095636858e-03  2.6947474588925914e-03  8.9298012844733626e-02  8.4533404442499543e-02  8.5851638880339851e-02  4.7663024062625744e-04  1.3318002489024956e-03  1.6162975598614372e-03  1.5821491281301559e-03  4.4024793511606537e-04  5.5880846383067903e-03  9.8484361092576692e-03  4.6855203251823423e-03  3.9036890927881700e-02  1.4094212390373220e-01  1.0786525951152698e-01  2.5274792991511297e-03  2.3974472880217111e-03  -6.4229787326818791e-04  8.9524950863763372e-02  9.1429744510113431e-02  -2.6322223492657696e-03  1.2663079136567531e-02  6.5510537568998356e-03  3.9316413155905290e-03  -8.9541276792975337e-04  6.5189939139732520e-03  6.0655863962987199e-03  4.9294109203152660e-04  5.2027223909769098e-04  1.3058987624582744e-01  1.3338233509897102e-01  1.0795466441313684e-01  1.1372452782172250e-01  -5.7838417005117923e-04  -2.2148773654648776e-04  5.9897327550053180e-03  4.5881568527358788e-03  3.7944229472106797e-03  8.9087295180808213e-02  8.1866671603436691e-02  1.0124763273891049e-01  1.0763064132164333e-02  3.3985019970874928e-03  1.9729386529242295e-03  1.3768186335732516e-01  4.3113598628799379e-04  5.1791196019459361e-03  6.0879999983459365e-03  6.0522213414120939e-03  1.0956575693352121e-01  1.7518796493577386e-03  9.7098795331838877e-02  8.7125846138322069e-02  5.7787303357874449e-03  3.1887029639723927e-03  8.9793642000471116e-02  1.3065252890717847e-03  1.2552103034876338e-02  2.2544747768193907e-03  1.0303843153295809e-01  5.0651740366528071e-03  -7.9125622094098475e-04  1.0806206382248221e-01  1.0156125839910655e-01  7.8112414801659175e-02  -2.1289339294135293e-04  -8.8857484510443566e-06  -3.5862210871546752e-04  -2.3940552340659641e-03  4.8405287660295928e-04  1.2805671497547874e-01  2.4750967336908411e-03  8.0201068228404018e-02  9.6388064764971457e-02  -1.8529158430905429e-04  -4.2518776847937341e-03  2.4697700750051848e-03  5.3773274396765838e-02  4.2060221831886286e-03  9.6738645658525330e-02  3.8774183039610431e-03  3.5179405562082745e-03  3.1389621001288916e-03  8.7149745978646040e-02  1.1042956178414788e-02  8.1779380413134466e-04  5.9217762431204258e-03  -6.3508042289371733e-04  -1.6607280243494985e-03  7.0786213207982345e-03  7.1743355287879704e-03  8.5932585237318018e-02  1.1535648961983035e-01  2.1341873364405773e-03  8.5711067956107268e-03  8.7922389502695639e-02  1.8288309363805042e-03  1.2439328732341678e-01  4.8398549185598300e-03  -1.4320266971370580e-03  -3.1217979700968856e-03  2.3625853500176801e-02  7.3529446453731292e-03  -1.0580969390477394e-02  1.9918138507607087e-03  1.3779528308587804e-03  3.1593180751255433e-03  1.0814145821938427e-01  1.4007499058408077e-03  9.9154751983523905e-04  1.6862138943693149e-03  3.1512553584801906e-05  1.1348783845127490e-02  -1.5630208726841459e-03  -1.0519703799265366e-03  -1.8292153371608723e-03  -1.1361030413417716e-04  5.6028989074403193e-03  4.4870500255161054e-04  5.5763771898042587e-03  1.0802549954547543e-03  7.9058643423991597e-03  9.3600573574235315e-03  6.2605600987922071e-03  4.1262024362452888e-03  2.7275668755752905e-03  8.3659908722388376e-02  -1.8297217017048167e-03  -2.9527702395871630e-03  5.1187843139412935e-03  6.1410776209063194e-03  8.4569018428260921e-04  4.8679119150980751e-04  5.6265762298677892e-03  6.8389153336184012e-03  3.2315193355660385e-03  8.0841711727719881e-02  8.3799505665998225e-02  2.1173149129921250e-03  4.2717041352834826e-03  8.8040442043478717e-02  1.7318610682584604e-03  2.1840958881187379e-03  4.0698054970948905e-03  1.1652502074936829e-03  2.3826359888117587e-03  -1.6910355058477491e-03  1.0395573326962765e-03  4.5798221426178047e-04  5.7783098426126382e-03  1.0846671657367368e-02  6.0184338515607242e-04  6.6234627407852508e-05  1.1430823242263911e-03  -1.7078883029071726e-04  1.3257905044657167e-01  1.0906187552828965e-01  1.1302558372655364e-02  3.0619363048254521e-03  1.0358834351851084e-01  -4.1908876746154572e-03  4.3103526693501974e-04  9.7456532757289800e-04  3.0402803565691902e-03  1.1789219516158658e-03  -1.2753507358787535e-03  3.9697203264371268e-03  4.7957743555488014e-03  -1.7250615801141388e-03  1.5986560748346226e-03  -7.1336888616602813e-03  2.0956827221504298e-02  3.9163188495785242e-05  2.1498102817602122e-03  1.5736566908338026e-03  3.2341243086104099e-03  2.7799625270711198e-03  2.4482675087212275e-03  1.7522747902753624e-03  1.5562979631771720e-03  2.9084044360154957e-03  9.4328424907550168e-02  1.0380599668265521e-01  6.3036304601524068e-03  9.6103231549322899e-04  2.8923281426622527e-03  4.1470923234127183e-03  -1.3447941179726495e-03  4.1084879350471306e-04  1.9918281178776141e-03  1.0203097050502780e-03  6.2452002987607048e-03  2.5419633217330429e-03  2.1106686650493589e-03  -4.5949269171345413e-04  3.1297184392646512e-03  2.5502985682501122e-03  2.9912668801289600e-03  9.9995366522198328e-02  1.0606890340166865e-01  -1.8313743449667145e-03  8.6603618644101633e-03  4.1929789945507336e-04  1.2379786507300621e-03  3.8864288112592546e-03  -2.1916042936117558e-03  1.2364398683872240e-02  2.0636578564687921e-03  5.9762868446316007e-03  2.3173733105923237e-03  5.1980681307540483e-03  8.9977196972399745e-04  1.2684695638199208e-03  4.4039016398852418e-04  1.0749223422311779e-01  7.5499768874874501e-02  1.0455824924599884e-01  9.6652755772427726e-02  1.1782545041713698e-01  1.0813728223452948e-01  1.0454296591486664e-01  1.0811689497842976e-01  3.4089033295734984e-04  6.8448722031044329e-04  5.9014851255516754e-02  1.4122921218834343e-02  2.4505642914365629e-03  -9.8060232841335458e-04  1.6370107900437008e-03  8.4380317492439537e-03  2.7931221754209225e-03  3.0897162952128829e-03  -6.4177039215196807e-04  2.0361622289147398e-03  3.2116831201795966e-03  -1.4149188332061537e-04  6.1437891715092436e-03  9.1020375719987889e-02  7.1250749475014835e-02  4.9505161715666254e-02  -2.0020722943081730e-03  2.2643325854207075e-03  1.2516660616580291e-01  1.0537615935323912e-02  -3.0764571046040189e-03  1.2534037668803972e-03  2.8438148670119043e-02  9.0057361545636427e-02  2.4823182204982202e-03  2.4981549754573918e-03  8.1727778272546847e-02  3.4227914882995944e-03  3.1465697081190565e-03  1.8008612005054108e-03  3.3373508046385175e-03  1.0993087915519483e-03  1.3535941343988450e-03  6.1665054722945109e-03  4.1447796638882286e-03  9.6770887370451787e-04  6.0323072508111095e-03  4.2514830937551377e-03  6.1682042036636285e-03  2.0902751488063752e-03  3.6560953106477270e-03  2.3383951135155560e-03  9.1030308803599410e-03  1.6521851094759158e-03  1.3640412056547110e-03  1.0084670523431771e-01  6.7586876709181190e-02  1.8677853778116646e-03  -8.7610028720633206e-04  4.8259986533339544e-03  3.3627263079573904e-03  3.4291245255892062e-03  3.4202105708807796e-03  1.4694475909921691e-03  -1.4786898540390522e-03  2.0738956431758920e-03  5.3902300350054172e-03  1.0248158865930314e-01  5.0019109200571329e-03  6.2453057390942628e-03  4.6035220978197129e-03  2.7875601356599847e-03  1.0714230622923770e-01  3.9957585530836552e-04  -2.3830136681283267e-04  8.7371381770109911e-03  8.4354864697347612e-02  -2.1703348935877376e-02  9.3977269348434235e-03  7.6465446620676419e-03  3.9574013479722068e-03  1.2761063958770688e-01  4.2287923302792045e-03  -2.3131577186901592e-03  5.0252143468508615e-03  2.4239496885734195e-03  1.0664130442435395e-01  1.1324559817496498e-01  6.9973582266920284e-03  6.5312139129852960e-03  1.3208049585411022e-01  1.0765818928715248e-01  4.4533272103557215e-03  1.8704290885361912e-03  3.4665129049774213e-03  -2.2093875075968042e-03  2.3383708086023467e-03  1.0243440520106678e-02  4.9781253263254926e-03  3.3721336647610195e-03  5.8858249388406350e-03  1.1271593741772969e-01  9.9733395602541824e-02  -2.7363072928294932e-03  5.6393729397105337e-04  2.0870504920825323e-03  -8.8363777990611695e-04  6.4410023538123782e-03  1.2255384355585441e-02  1.0045639057659402e-02  5.4271946970975470e-03  4.8785680381298775e-03  1.3293335596875359e-03  1.2148977803790085e-02  3.0020731310216476e-03  1.5770078210568675e-01  1.0783927226111836e-01  8.9031977468523316e-03  3.4650995305221324e-03  -5.1618018327114204e-03  1.0128265193787757e-01  2.9163017473795450e-03  3.5956506225881600e-03  1.0947403716176088e-01  8.3445089431696123e-02  2.6127333221387331e-03  1.0983570913800970e-01  8.8761562981705497e-02  1.9021673614678244e-03  -8.7484352465724436e-03  1.5964861090414069e-02  5.0450521927238104e-02  2.6310388589873479e-04  4.9378125172956713e-03  9.9183354144504539e-04  1.2078156469519886e-03  1.2047407896077257e-01  4.2177224519609671e-03  2.2334180899415075e-04  7.5367528691775145e-03  4.2943761868969510e-03  -3.2845250914906922e-11  9.0106515526058223e-02  2.1319758141909303e-03  2.3966860200211118e-03  -7.2359135055624895e-04  1.8383862122973407e-03  6.0169559766947243e-03  1.0953439134790971e-01  1.2471112647631595e-01  4.3201314555681755e-04  1.7336405019264208e-03  8.5786749934758016e-02  9.9458208311354129e-02  1.2186173384841875e-01  3.9600783731478907e-03  3.6626427994498811e-03  3.2060346066527415e-03  1.5382245924449619e-03  3.8285934650285304e-03  1.2512045404523017e-02  4.4865248559855797e-03  1.7848757258117052e-03  1.1360058236512822e-01  1.7396454682035015e-03  1.9114253085443721e-03  2.0249018764476410e-03  4.6581042525751945e-02  9.0340655899538005e-02  8.2197843163621803e-02  4.0452879382235664e-03  1.1205269620606488e-01  1.4580849511922244e-02  6.2146660857426437e-03  -4.9103451082057638e-03  2.1541847846923330e-04  3.3603134460042766e-04  -1.2016510477078021e-03  1.7213893987501841e-13  1.3384979727638835e-01  8.7616476709603638e-02  2.8038130921087430e-03  2.2611806635885220e-03  2.0169217460970505e-03  2.6855241860013613e-03  5.6199765268733900e-03  1.0232564975976194e-01  9.2827409373249015e-02  1.6080056015826214e-02  3.0022391278322421e-03  6.3933511963804840e-02  -4.9180685310994934e-04  2.5361810469459981e-03  9.2513540951960835e-03  5.8583657621135328e-03  3.0802239155806706e-02  7.3670843780888591e-03  4.4035706602744895e-03  5.7784870357010191e-03  8.0850887395171437e-04  8.8168739882114823e-04  3.6793054980156087e-04  8.0063057774904772e-02  5.2983779463192611e-02  4.2056487627678890e-03  2.8050287510139500e-03  -5.8567534905344309e-03  1.0527015606727190e-03  4.7598867513020246e-03  5.5243296840896700e-03  4.9058658773804944e-03  1.1642619191909907e-01  8.6238776586863887e-03  -3.3080166414749005e-03  -2.4633055891807492e-03  1.0791504298471996e-01  3.3211513862081580e-03  8.3564474180732623e-02  -2.7397023316405884e-03  1.0294991183445583e-01  3.4668762767690376e-03  2.4831693715185268e-03  1.1583377838408411e-03  8.9196409370470506e-02  -8.9621142720521321e-04  -3.8109994534950352e-04  -3.2845250914906922e-11  2.2341588178536507e-03  2.0800944465042665e-03  4.3924602157353210e-03  5.2352825774106739e-03  9.0136762542627188e-02  8.7793794996677096e-02  3.2635423866585350e-03  -3.2454716387886584e-04  3.0956081640749725e-03  1.3876410794502329e-03  4.4386629329686419e-03  4.2109367182798499e-03  5.1735346759222214e-03  7.3869055304348299e-02  1.9740275133012884e-03  -1.7613603663692089e-03  -2.2224636150814645e-03  7.0834723271208698e-03  2.8328318565096124e-03  2.1905645711757758e-03  2.4020227217061182e-03  4.7609640400710848e-03  5.6909394124330321e-03  3.1820444219621846e-03  3.0446050354606771e-03  1.0023444194409420e-01  1.1009110110437127e-01  6.1300372280761566e-03  1.1696896609383323e-01  1.0610711876518709e-01  5.1769330534831778e-03  1.3922437913868090e-03  3.5209553385369809e-04  -9.5219404852442150e-05  3.1351384951274295e-03  8.7043778070170928e-04  9.9872799751649826e-04  7.7580854654622458e-02  3.8240140580330425e-03  3.1773222523525462e-03  -1.2688128713215193e-03  8.1211885633729400e-02  -1.1823785015108561e-03  6.1510957225142321e-03  -2.5376139324533977e-03  1.1950164579510826e-01  1.0846964166809527e-01  4.9694972327693297e-03  2.3023168578062670e-03  5.8624849070953835e-03  8.9146488567541787e-03  1.0569824997905345e-02  1.0777495702488232e-01  5.4445556118336395e-03  9.2748093122418662e-02  3.3188887939536926e-03  6.9736757186770429e-02  8.2453957243994853e-04  4.7178282050991966e-03  6.1746065630174903e-03  1.0696373900294089e-01  2.5194198369788384e-03  1.7007062406472785e-03  1.3750902031967579e-03  