<?xml version="1.0"?>
<VTKFile type="UnstructuredGrid"  version="0.1"  >
<UnstructuredGrid>
<Piece  NumberOfPoints="1404" NumberOfCells="2604">
<Points>
<DataArray  type="Float64"  NumberOfComponents="3"  format="ascii">0 0.41 0  0 0 0  2.2 0 0  2.2 0.41 0  0.2353553390593274 0.2353553390593274 0  0.25 0.2 0  0.2353553390593274 0.1646446609406726 0  0.2 0.15 0  0.1646446609406726 0.1646446609406726 0  0.15 0.2 0  0.1646446609406726 0.2353553390593274 0  0.2 0.25 0  0.6923879532511287 0.188268343236509 0  0.7 0.15 0  0.6923879532511287 0.1117316567634909 0  0.6707106781186547 0.07928932188134523 0  0.6382683432365089 0.05761204674887133 0  0.6 0.04999999999999999 0  0.5617316567634909 0.05761204674887134 0  0.5292893218813453 0.07928932188134524 0  0.5076120467488713 0.111731656763491 0  0.5 0.15 0  0.5076120467488713 0.188268343236509 0  0.5292893218813453 0.2207106781186547 0  0.561731656763491 0.2423879532511287 0  0.6 0.25 0  0.6382683432365089 0.2423879532511287 0  0.6707106781186547 0.2207106781186547 0  1.1 0 0  0 0.205 0  1.1 0.41 0  0.55 0 0  0.55 0.41 0  0.275 0 0  0.8250000000000001 0 0  0.275 0.41 0  0.8250000000000001 0.41 0  0.6875 0 0  0.61875 0 0  1.65 0.41 0  1.65 0 0  1.375 0 0  1.375 0.41 0  1.925 0 0  1.925 0.41 0  1.5125 0.205 0  1.7875 0.205 0  0.9625000000000001 0.205 0  1.2375 0.205 0  2.2 0.205 0  1.99375 0.2152743902439024 0  0.4125 0.41 0  2.0625 0 0  2.0625 0.41 0  2.2 0.3075 0  1.7875 0.41 0  1.375 0.1486128048780488 0  1.5125 0 0  1.7875 0 0  1.5125 0.41 0  0.9625000000000001 0.41 0  0.4125 0 0  0.1375 0 0  0.1375 0.41 0  0.6875 0.41 0  0.9625000000000001 0 0  1.2375 0 0  1.1 0.1486128048780488 0  1.2375 0.41 0  1.65 0.1486128048780487 0  0.823495464168302 0.2603780552348366 0  0.3738707794507017 0.2720196349488618 0  0.3662291281331582 0.1311456406657909 0  1.676715909090909 0.2793064024390244 0  1.126715909090909 0.2793064024390244 0  1.348284090909091 0.2793064024390244 0  0.8287581077665108 0.1302150898054257 0  1.894702181800738 0.1282910975492754 0  2.092797818199262 0.1282910975492754 0  1.85625 0.3075 0  0 0.3075 0  0 0.1025 0  2.099172119769978 0.25625 0  0.4752414543992246 0.3180372603390748 0  1.99375 0.08395950269330846 0  1.459960956013612 0.3075 0  1.569025960719943 0.2986889805672169 0  1.03125 0.3278689922742084 0  1.959375 0.3126371951219512 0  1.749222215368287 0.1025 0  1.275777784631713 0.1025 0  0.9228016959331474 0.3075 0  1.000777784631713 0.1025 0  2.2 0.1025 0  1.225938124459196 0.3075 0  1.550777784631713 0.1025 0  1.44375 0.07430640243902442 0  1.16875 0.07430640243902439 0  0.7562500000000001 0.3358727844323386 0  0.89375 0 0  1.899250267340833 0.2229966846119207 0  0.61875 0.41 0  1.766482954545455 0.2934032012195123 0  1.046078563095834 0.2389031808701145 0  1.421109702350723 0.2261157654379721 0  0.07567171807980319 0.25625 0  0.2511897295290552 0.3235829392832554 0  0.07655002503762308 0.1488653460959645 0  0.1377245246847496 0.3206030474919778 0  0.6694099692696568 0.3242771941727899 0  0.9168971191497528 0.1295727156104653 0  0.7562500000000001 0 0  2.118919042110979 0.3422084711244843 0  2.13125 0 0  0.06875000000000001 0 0  1.30625 0.41 0  1.597888256393107 0.2173787389261347 0  0.34375 0.41 0  0.2493272016354703 0.08091360081773515 0  0.5588896233436766 0.3264056208677571 0  1.829299675393195 0.07400700849299596 0  0.1334079128307869 0.08523463035786674 0  1.71875 0.41 0  0.06875000000000001 0.41 0  1.16875 0.41 0  2.038220665644273 0.332420740103091 0  0.8810647413215221 0.2027360103977071 0  0.34375 0 0  0.7453891198966415 0.2471459041008237 0  0.42112093004955 0.1988123139090554 0  0.8314023090855964 0.3351170841770613 0  0.89375 0.41 0  0.7906250000000001 0.06615386481594063 0  1.452769549894695 0.1548122580621249 0  1.369219062229598 0.07430640243902442 0  1.30625 0 0  1.07420695807087 0.07430640243902439 0  1.720943423819132 0.1714577452753128 0  1.157188124459196 0.205 0  1.304056576180868 0.1714577452753128 0  1.67579304192913 0.07430640243902437 0  1.209670467133757 0.136210026696477 0  0.4312800784902823 0.08036147352247747 0  0.8723959680194693 0.07066860609690805 0  1.025335513626278 0.1700681449722324 0  0.7945632284247136 0.1940204203251442 0  0.378125 0.3452261501101892 0  0.3307109909790086 0.2037165635083759 0  0.3009701032039409 0.2702970083403109 0  0.20625 0.41 0  1.58125 0 0  0.4812500000000001 0 0  0.9838963872396855 0.2722244191167347 0  0.06772484939107212 0.3260067317374387 0  0.20625 0 0  1.58125 0.41 0  1.631724228912893 0.3381867502687533 0  1.825608881788174 0.14499488549201 0  1.85625 0 0  1.44375 0 0  1.44375 0.41 0  1.85625 0.41 0  2.13125 0.41 0  0.7562500000000001 0.41 0  0.4812500000000001 0.41 0  1.16875 0 0  1.03125 0.41 0  1.03125 0 0  1.71875 0 0  1.99375 0 0  1.99375 0.41 0  0.9408708167433545 0.0651989315768642 0  1.340625 0.3489494290853124 0  1.134375 0.3489494290853123 0  1.700180620188976 0.3438659752031281 0  0.29668452290037 0.1318471691375986 0  0.3175441051360096 0.06496934809856265 0  0.06509151636162461 0.08140814015999148 0  2.135782184673599 0.07126652247502523 0  1.668441847249787 0.2129203728327609 0  1.295782514339747 0.2378437748815763 0  1.409375 0.3520314716057996 0  2.129248544730567 0.1906135162504124 0  2.060771381434487 0.1989445750470348 0  2.013252586573865 0.1496169464686054 0  1.942766402200229 0.1734448904596831 0  1.895522487186454 0.06076163953489683 0  2.069553871656643 0.06605731020975725 0  0.4670911801404742 0.2498408582391372 0  0.7622743084658112 0.1264100838268133 0  1.274680914880868 0.3520219391081363 0  0.3148669572599245 0.3331753056385887 0  1.614713220494657 0.09473434380863296 0  1.72990325744076 0.2380068107952482 0  1.356580098625191 0.2120393231351682 0  2.034370752044885 0.2668681600792073 0  1.51768709249349 0.3426260931494756 0  1.561883724969884 0.1650446847858835 0  1.197344062229598 0.2523725417393646 0  1.804085235518364 0.3468178408964637 0  1.817887819205233 0.2589243285818559 0  1.905897727272727 0.3485060975609756 0  0.7296439733931823 0.06337466644369745 0  0.4250935971865949 0.1394919578475796 0  0.3773030136511669 0.05130372097998036 0  1.192836486056382 0.3562350748565544 0  1.1029124365364 0.226143510831178 0  1.28257088594801 0.2944411014911587 0  0.1905185804731426 0.06029880676029167 0  1.474860187679412 0.2504218616229368 0  1.406767003493824 0.2829282258560709 0  0.5209826960981064 0.2830664557824064 0  0.5131119502780163 0.3617405848213254 0  0.1948220106098172 0.3081993407644811 0  1.845656689180403 0.1998310418452388 0  2.144958525570388 0.2909790873294231 0  2.2 0.15375 0  0.8833025251326762 0.2625402923007629 0  0.171875 0.3653875762360952 0  1.57794966442982 0.3540357145964566 0  0.446875 0.366068291212731 0  0.4272051715206439 0.2891929346190664 0  1.508991196088596 0.1421783375065625 0  1.50436820029908 0.06143401634903343 0  1.223857000523521 0.08235548624535324 0  0.6137904613287555 0.3066826366281556 0  1.153316824384777 0.1289850171317838 0  0.9751573703656133 0.327632618473408 0  2.148922302309752 0.1258841779285271 0  0.9281250000000001 0.3643758685795699 0  1.621993280276081 0.2841214267927899 0  1.550118654119087 0.2461998729100966 0  1.327182649291491 0.1216967252533594 0  0.9939955742738924 0.04663549843168518 0  1.753125 0.04556020050186112 0  1.271875 0.04556020050186116 0  0.9734326767716519 0.1506854560854393 0  0.103125 0.3675775577080512 0  1.94956388244759 0.1180512551534177 0  1.949997712993411 0.04965831614304109 0  0.717433898748555 0.295596016333797 0  1.771961817615021 0.1530278789497521 0  1.909246823951428 0.2812757146784527 0  0 0.35875 0  1.050632804931928 0.1226269704412814 0  0.05695108326502596 0.2024009637347154 0  1.948575539857022 0.2445328248721197 0  1.697271520964565 0.1233917627620729 0  1.065625 0.3689344961371042 0  1.085849084308977 0.3170853572226867 0  0.1015495998772944 0.04226029099983852 0  1.577403511714593 0.05463601888079143 0  1.751571320346033 0.3651102912045228 0  2.2 0.35875 0  0.7441773632462837 0.1786786606458751 0  0 0.05125 0  1.466879772203159 0.3611261772912453 0  0.6282230348858767 0.3577675483994025 0  1.990280163552011 0.3564754268533217 0  1.17471064520912 0.2990917256188288 0  0 0.25625 0  2.2 0.25625 0  2.2 0.05125 0  0 0.15375 0  1.853978576207987 0.35875 0  1.515638456102889 0.2882700110184686 0  2.150453692751374 0.2387066338105111 0  1.323782677156475 0.04897634338873398 0  1.409375 0.03715320121951221 0  1.406484531114799 0.1087852750766809 0  1.134375 0.03715320121951219 0  0.721875 0.3729363922161693 0  0.7941695928236929 0.3696489254637395 0  0.7934827162619036 0.3013409431456604 0  1.627401732573545 0.04552157221025036 0  0.9352049974617431 0.2507047965699472 0  0.8763260682738339 0.3611103317460093 0  2.045405893604797 0.1105340662939892 0  1.255408269734577 0.1577307500159216 0  2.028125 0.03707597992059326 0  1.003030137506755 0.3689344961371042 0  1.248258025468107 0.2565907092181813 0  1.203125 0.03661323374043041 0  0.4800125512335631 0.0549472816999725 0  2.072662025974815 0.2975086504196739 0  0.240625 0.3729825336867542 0  1.113252391110535 0.10238286244357 0  1.071052763974265 0.1885202618768825 0  0.8738809401657862 0.3106483608284829 0  0.6786819423003397 0.2677558482644021 0  1.887722846421017 0.1760882698830035 0  1.472640588990488 0.1118278026240017 0  0.5843750000000001 0.41 0  1.865937103925594 0.2604137786483804 0  1.463913572748262 0.2030442564990043 0  1.376426316059077 0.3186741374914345 0  0.1038643885363755 0.2162701735320032 0  0.1769473813227781 0.1070849728467114 0  0.458787839809176 0.171541653775316 0  0.240625 0 0  0.04179569703428024 0.2877217852556549 0  0.1258346557601885 0.2699740073054968 0  1.722140693354707 0.282908100935778 0  0.41206179117512 0.2448172567039922 0  0.3702471778075604 0.2265217604228704 0  0.3714881805374215 0.1786967818665642 0  1.77397096061971 0.2481483237422926 0  2.105123889160691 0.03743885948498647 0  1.001138337938679 0.229719337663998 0  1.051242910646791 0.2854826559431138 0  1.395420985247586 0.18
[...]
<PointData  Scalars="f_43"> 
<DataArray  type="Float64"  Name="f_43"  format="ascii">1.0793149039076300e-01  2.0433762271662576e-01  4.8245063868875131e-12  -2.6716619219273359e-11  8.0372449955103134e-02  8.3542187871177023e-02  7.0148074609352101e-02  6.6420904588250604e-02  1.3684102795475034e-01  1.3836928882773594e-01  8.9257100405446654e-02  7.1130736115007781e-02  -4.7558849622651115e-03  -3.5348203159668331e-03  -7.3749138500625823e-03  -1.4322700955688564e-02  3.5341490215698962e-02  -6.2959319302937971e-03  -2.1085278751517354e-02  8.7347445133298826e-02  1.5898776453584956e-01  1.5172779977763937e-01  7.3939407021186634e-02  1.5329848528869046e-02  -1.9750606126112479e-02  -3.4069786785218409e-02  -2.4820937011923797e-02  -1.1148295880617453e-02  -1.9978042959293298e-03  1.1807754283181449e-01  2.5882008236708374e-03  5.7704426888527671e-02  4.7349535250634123e-02  1.0120639503218816e-01  -1.0735085017181303e-03  9.2775995172889814e-02  3.0914815413827525e-04  -3.2085368636096058e-03  3.3827670473086432e-03  6.0993659419217401e-03  7.3927500138789006e-03  1.0970478194269946e-02  1.3867670704573562e-03  3.1639209185637574e-03  3.7047309591972111e-03  5.4204238253528995e-03  5.1518923186093246e-03  1.7999514956022495e-03  -1.0228020425158777e-03  -2.9021872368877176e-11  2.5913806915731780e-03  8.0348670547570444e-02  1.6439059570020789e-03  1.7877621449966003e-03  4.6534956482866099e-11  5.6114854269022109e-03  6.8680470806555044e-03  1.1822108165760752e-02  4.7065838100311553e-03  2.9951923302726381e-03  1.2853769904812365e-03  1.0638522320714854e-01  1.1386471743029011e-01  1.0690431459978167e-01  7.8665118165736018e-03  -3.5369915312763315e-04  7.9399723115032702e-04  -1.7302511623195106e-03  2.7764946798599132e-03  6.8813462817495811e-03  1.3174984323569988e-03  9.1335485020542700e-02  9.9450656519561642e-02  6.2164024161524348e-03  1.4783168296312315e-03  2.1001523135835993e-03  9.2564165962477683e-04  3.5770612727462118e-03  1.3090639997515310e-03  4.6504096831800562e-03  1.0871627119302064e-01  1.2853572158867602e-01  1.2763042238956638e-03  7.1805727323832502e-02  2.4380079822169157e-03  1.1298831019804037e-03  4.2536685677123931e-03  2.4140682188384440e-03  3.1820951116758979e-03  5.2878977285510179e-03  6.7446352102802469e-04  2.0051107662472922e-03  -4.5270030681927219e-05  3.2011275955059188e-12  3.2115370627423317e-03  1.0046700609870148e-02  1.2213570059487288e-02  -2.5137318715756089e-03  1.2628921322810683e-03  -2.7257922764532854e-04  3.8188938569672071e-03  2.3416692815417025e-02  5.7875988779551302e-03  8.4035004372124452e-04  3.4003894148589104e-03  1.1326616667411180e-01  9.0209395214872173e-02  1.2855039397336726e-01  1.0508632674550045e-01  1.6948459400671215e-03  9.9142634274319353e-04  -3.0051116524128438e-03  1.0414896852569877e-03  8.3257655337488348e-04  1.2793106143837951e-01  2.1515876303330960e-03  5.9548347288347105e-03  8.6729650311787421e-02  9.5157638164294081e-02  3.3989511164306797e-02  4.2089949897005444e-03  1.2082181504489051e-01  6.2042864148839751e-03  1.0831952906557384e-01  2.8826613461523719e-03  2.1088245220254685e-03  2.3382361634825856e-03  1.0274032745017982e-01  -2.9110136449470858e-03  9.6293675712334881e-02  1.3215441028961367e-03  5.9094526978910680e-04  -3.3217958732441257e-04  8.7536095567684151e-03  9.2603546891765979e-03  6.0016670675172587e-03  -1.3644350709968577e-03  5.8115597691997135e-03  -1.8756629111729107e-03  1.6743944466000940e-03  6.7492280534690880e-03  -3.0820909268250650e-03  1.1694107624514877e-01  2.9522027665748274e-04  3.8382799304095898e-04  3.7824136443457651e-04  8.5177627314181936e-02  8.8784209208475448e-02  8.7333953062959005e-02  1.0082807155456239e-01  9.5655558190027076e-03  1.0644781382740667e-01  1.9555413180963699e-03  1.0825789486539621e-01  1.0529075859269507e-01  4.9066184739618339e-03  5.7641851008936231e-03  4.4018912437670298e-03  3.8912688989849128e-03  1.2882409560536929e-02  1.5072653506375136e-03  4.6984327997295801e-03  8.8168322203068883e-04  1.7248900347927257e-03  6.8288070884288427e-02  -1.8522371484024824e-03  2.0110544258647072e-03  -1.1071681047633050e-03  5.7966979256939884e-03  2.4240359246544101e-03  2.7261880845067614e-03  1.2400766550048795e-04  2.0499019904105546e-03  3.3209192934354386e-03  6.2258433116335141e-03  8.7448254786377938e-02  1.0134566468229944e-01  1.2848387814263498e-01  7.8052669801018906e-04  6.2648833821796366e-03  1.8832915356911033e-03  1.2078213582331768e-03  8.7808678318214753e-04  1.7328323975461899e-03  2.2667982886124937e-03  3.1367400917792967e-03  3.4787885813643378e-03  1.5654002077614291e-03  8.0967326903731360e-02  -1.9490577466318548e-03  2.9920456002726949e-03  8.9060629962073923e-02  8.2926374017994273e-03  5.9398821592147773e-03  3.4820852892740593e-03  2.1232241667817242e-03  2.6876097231935416e-03  7.6082104970344082e-03  5.1456449772959150e-04  5.4011624258869361e-03  5.0363722033678936e-03  3.9761142697822991e-03  -2.0775108707304928e-03  1.1800433247968795e-01  1.0611471228445937e-01  3.4297451515984652e-03  -4.5076405996752117e-04  2.8564885677334201e-03  1.0624309182069111e-01  2.4688054797855586e-03  1.2603950692439973e-03  4.5731354769442067e-02  5.8171603478981031e-02  9.2536565541615157e-02  4.4046895065053739e-03  6.9709646338057655e-04  -7.6447566503248861e-11  2.3149591428889660e-03  1.0327538832895831e-01  4.5608233350988066e-03  7.5179361587650401e-02  8.6569174359483261e-02  9.3228738427431797e-03  1.1914235972749092e-02  -1.6392642022261307e-03  -3.5666603003827867e-05  -3.0988910904158266e-03  2.0806279010459148e-03  6.2808353743469731e-04  1.4674427982780092e-03  5.6537841851093821e-03  4.3565180617961335e-03  4.3500224307094718e-03  -3.6773310610175859e-04  5.2340145253832833e-03  2.3770434261217543e-03  8.3851477634991985e-04  1.0746076353542368e-01  2.9558933978193042e-03  2.8989799719239761e-03  -3.0202976098130021e-03  5.0886066496145027e-03  3.8440788731018117e-03  1.0776861779421287e-01  -7.1168094096197133e-04  1.2073891661656140e-01  3.2266964128420846e-03  6.1641876316631443e-03  2.7041177869014674e-03  2.6342355391192596e-03  1.2264899836632857e-01  9.7843597881105398e-03  5.9620697939273123e-03  -2.6716619219273359e-11  -2.4743461578929900e-03  1.3725208678249293e-01  1.6295552824606881e-03  1.7053243412482110e-02  2.7734709779062743e-03  2.6938865197605336e-03  1.1214863143463800e-01  -2.9021872368877176e-11  4.8245063868875131e-12  1.2377932406523622e-01  4.7258622900175386e-03  2.5206043296131342e-03  6.2265963532324444e-04  6.4474054749485993e-03  1.1899285633105636e-02  1.0225266889956775e-02  -2.0296288177254025e-03  4.3265289038143520e-03  1.3675377865536161e-03  7.0620578306815557e-04  8.1689473913807015e-03  2.3047052614104855e-03  1.1829912702613159e-03  1.8625466328901186e-03  -1.3817866787949257e-03  2.0379181343256675e-03  2.1152896424441354e-03  1.6159330541843525e-03  -1.1334620732144269e-03  1.0953189314104844e-01  1.6369115098304023e-03  9.5887941420685213e-02  -2.2319462639135493e-03  -4.0618275969458734e-04  1.7506334624934042e-03  -1.0733494951272723e-02  3.7955654087446960e-03  1.1188915042858403e-02  3.4875966900506303e-02  4.3931795393826970e-03  5.2042111888859948e-03  1.4406005999294774e-03  1.2369558285388260e-01  1.0724589038907885e-01  1.1617827206925734e-01  1.0230876205512326e-01  1.0996009794734200e-01  1.0620866716139150e-01  6.1404642001590837e-03  9.1684990917923356e-02  9.1786075053466809e-02  9.2824055024900806e-02  5.5371612996993206e-03  1.1428838752426966e-03  1.5040048641351727e-03  1.7394866543642739e-03  5.4998961661871758e-03  2.2526480602243744e-03  8.2783545272332018e-02  7.7978088216158498e-03  1.2740387165131170e-01  1.3222622372063475e-01  1.7742966459191602e-03  1.4798401988799920e-03  9.2925072178007148e-02  5.2548458688457481e-03  2.6944115832039680e-03  8.9298564907910341e-02  8.4534277507966993e-02  8.5852895724048542e-02  4.7666443698995530e-04  1.3315733765280862e-03  1.6158732332599783e-03  1.5822533021384983e-03  4.3111621532443748e-04  5.6323800508050990e-03  9.8513384376200334e-03  4.6911735309998655e-03  3.9038600114638965e-02  1.4094252735300516e-01  1.0786590005070736e-01  2.5265941401138125e-03  2.3949196243895918e-03  -6.3989880892516662e-04  8.9526846302170518e-02  9.1431579647740208e-02  -2.6574472329160461e-03  1.2668484077321483e-02  6.5705845207749986e-03  3.9914613440055237e-03  -9.2167125689570750e-04  6.5117453199351541e-03  6.0609537388302600e-03  4.9338545511741039e-04  5.2026348097867353e-04  1.3059118129876182e-01  1.3338364337847719e-01  1.0795622903769776e-01  1.1372568235116694e-01  -5.7927812734683774e-04  -2.2083575909747160e-04  6.0270495097337010e-03  4.5935612109886635e-03  3.8012058422126679e-03  8.9089190759382875e-02  8.1867543841484439e-02  1.0124858619600161e-01  1.0743401143124368e-02  3.3960279533336683e-03  1.9842846434118492e-03  1.3768326993380672e-01  4.3228822135709039e-04  5.1763238143807868e-03  6.0946634569592007e-03  6.0812990355302446e-03  1.0956657332292076e-01  1.7533082869763319e-03  9.7099608542794216e-02  8.7127752401132144e-02  5.8212504286871570e-03  3.1828971987382612e-03  8.9795050635117279e-02  1.3073555685756003e-03  1.2570773952708331e-02  2.2613493280828735e-03  1.0303945701488086e-01  5.1249536946758973e-03  -7.8946428920381056e-04  1.0806365185578128e-01  1.0156213275504375e-01  7.8112667736491254e-02  -2.2128170850704336e-04  -1.3012185577578624e-05  -3.8615565020641476e-04  -2.4482907119657005e-03  4.8432547644795875e-04  1.2805803429910720e-01  2.4498419754046298e-03  8.0203091091738191e-02  9.6389768091575997e-02  -1.7825769857779649e-04  -4.2497723803743247e-03  2.4736381159009202e-03  5.3774883876348510e-02  4.2026264221840318e-03  9.6740336286843573e-02  3.8843066298333423e-03  3.5245054960988454e-03  3.1444702482334918e-03  8.7151388859892751e-02  1.1042546026065945e-02  7.9606685886781596e-04  5.9188551518716418e-03  -6.6340891102659345e-04  -1.6910954682879528e-03  7.0668147473046360e-03  7.1650943605376487e-03  8.5933468286265843e-02  1.1535807115791383e-01  2.1333206700677133e-03  8.6343622257156021e-03  8.7924407905539181e-02  1.8326254030347933e-03  1.2439476376459352e-01  4.8444069532824320e-03  -1.4271589335101815e-03  -3.1196155854519327e-03  2.3627580298384077e-02  7.3807223034182091e-03  -1.0579322789291882e-02  1.9944100124398598e-03  1.3929621521819157e-03  3.2165846573687074e-03  1.0814304794410813e-01  1.4100788437808338e-03  9.9891234320656388e-04  1.6983597452948037e-03  3.6538803630345322e-05  1.1335513352289625e-02  -1.5942209389735189e-03  -1.0496367546938682e-03  -1.8275494649637124e-03  -1.1130214494286542e-04  5.6075083444332230e-03  4.8536064781499550e-04  5.5786928866727583e-03  1.1587665047266334e-03  8.0112785730481022e-03  9.4617649101721053e-03  6.2642392014700555e-03  4.2156604126077192e-03  2.7305011321712429e-03  8.3661534452935712e-02  -1.8000323257921420e-03  -2.9702675779959024e-03  5.1768664824706091e-03  6.1696969218035715e-03  8.4582886066300383e-04  4.8373512812629023e-04  5.6690297408947231e-03  6.8608994998098716e-03  3.2897351791593070e-03  8.0843631100766450e-02  8.3801410182375316e-02  2.1206830785622270e-03  4.2783973451724173e-03  8.8042189831613257e-02  1.7321926651275195e-03  2.1845208658325035e-03  4.1769501456483784e-03  1.1652793529214828e-03  2.3874937875153074e-03  -1.6864728202638868e-03  1.0399054963364334e-03  4.5818321727358191e-04  5.7790220497910003e-03  1.0830783449660649e-02  5.7460154262027488e-04  4.1996000928454541e-05  1.1309330497798486e-03  -1.7222930068725624e-04  1.3258040523913675e-01  1.0906299810165004e-01  1.1379071904878331e-02  3.0737590041849680e-03  1.0358916333578981e-01  -4.1875898911802557e-03  4.3135307337921480e-04  9.7541120102887305e-04  3.0414314390137219e-03  1.1787336816134833e-03  -1.2877954202085043e-03  3.9758264934691076e-03  4.7999880283089227e-03  -1.7227050602263054e-03  1.6080239598808370e-03  -7.1326721946349640e-03  2.0957147997405730e-02  2.6104853366081510e-05  2.1543387184021151e-03  1.5629022999558316e-03  3.2390740960871666e-03  2.7865015267320532e-03  2.4301918000081044e-03  1.7352403790411759e-03  1.5410705771811393e-03  2.9146725223379234e-03  9.4329299661257970e-02  1.0380680011509494e-01  6.3403368599230271e-03  9.6169904731875395e-04  2.8908741830933429e-03  4.1514617992043385e-03  -1.3956092076448207e-03  4.6281802543915565e-04  1.9903656382475152e-03  1.0115608039997035e-03  6.2648190230976675e-03  2.5437625978559312e-03  2.1119998478538651e-03  -4.9853365531815944e-04  3.1285489164271747e-03  2.5375862000745195e-03  3.0005871827038454e-03  9.9997071872180890e-02  1.0607046505715527e-01  -1.8377615250681635e-03  8.7694021372132676e-03  4.1964471989731472e-04  1.2393148308420636e-03  3.8903068812692386e-03  -2.2125312733761874e-03  1.2426813510005326e-02  2.1070306468697368e-03  5.9795383480843048e-03  2.3285398328496444e-03  5.2004948761951051e-03  9.1054937434215848e-04  1.2735872549771280e-03  4.4041979512188484e-04  1.0749293986132571e-01  7.5501602363813411e-02  1.0455897961442041e-01  9.6654569017773292e-02  1.1782668417853344e-01  1.0813880457705613e-01  1.0454459974373136e-01  1.0811845117287190e-01  3.4912813340962279e-04  6.9030282388550838e-04  5.9016538921457182e-02  1.4125365086889437e-02  2.4518917081806919e-03  -9.5417784084664118e-04  1.6492709086593910e-03  8.4195144187971700e-03  2.7978439911421874e-03  3.1798172083891143e-03  -6.6294854852671028e-04  2.0389611421956573e-03  3.2094937678893614e-03  -1.5151076886253453e-04  6.1555349897048908e-03  9.1021844780190223e-02  7.1252665337101437e-02  4.9507622291585271e-02  -2.0378337348855176e-03  2.2671038838470606e-03  1.2516787490680703e-01  1.0587530700460175e-02  -3.1212104442057483e-03  1.2596813963470935e-03  2.8440075254876487e-02  9.0059135329297671e-02  2.4872998806936939e-03  2.4859668134860884e-03  8.1728755297272818e-02  3.4286348419481460e-03  3.2152430983496062e-03  1.8523544109906346e-03  3.3435024256794716e-03  1.1131825461685235e-03  1.3641167636647266e-03  6.1807173013770766e-03  4.1415971946304276e-03  9.6000817804422274e-04  6.0415021125558794e-03  4.2581570613156256e-03  6.1929280869322629e-03  2.1341995777961328e-03  3.6535919776680562e-03  2.3865377965639370e-03  9.0827591126014517e-03  1.6542516204804865e-03  1.3654138989163205e-03  1.0084782742046909e-01  6.7588674632523119e-02  1.8722050276757797e-03  -8.7438866176808437e-04  4.8911797671897482e-03  3.3553390023946406e-03  3.4307654258108676e-03  3.4241783148958494e-03  1.4692125584900510e-03  -1.5251351497545171e-03  2.0734384880079452e-03  5.3886510113028852e-03  1.0248247937552903e-01  4.9985272215224974e-03  6.2623072247683445e-03  4.6033786915522521e-03  2.7921135973708426e-03  1.0714386421446825e-01  3.9967657092326029e-04  -2.3132706394736772e-04  8.7338176615955575e-03  8.4356784861409212e-02  -2.1702141760730188e-02  9.3801115810439213e-03  7.6313803424202060e-03  3.9542519945317605e-03  1.2761211461754415e-01  4.2874539824362566e-03  -2.3109673300442455e-03  5.0776190645727814e-03  2.4338191081044258e-03  1.0664196359977839e-01  1.1324729985597663e-01  7.0254085523259908e-03  6.6454521861759987e-03  1.3208061240081584e-01  1.0765928401533387e-01  4.4498832152321697e-03  1.8810322473231597e-03  3.4640103488270809e-03  -2.2079575810146543e-03  2.3515806054283527e-03  1.0223605783527044e-02  4.9789152177254093e-03  3.3747658764718756e-03  5.8902028061473856e-03  1.1271704308877971e-01  9.9734389536473386e-02  -2.7780205592132070e-03  5.8128200157135765e-04  2.0903067021604744e-03  -9.0541877428588385e-04  6.4519400434024342e-03  1.2272360551011550e-02  1.0045543428590807e-02  5.4262865055570882e-03  4.8759540577970615e-03  1.3299230219664239e-03  1.2147998350658511e-02  3.0001517923057028e-03  1.5770210368446766e-01  1.0784084084403564e-01  8.9087666695855487e-03  3.4713135654242315e-03  -5.1592753537143517e-03  1.0128427366127918e-01  2.8976560790299473e-03  3.6607522926351563e-03  1.0947470086850819e-01  8.3447079923602341e-02  2.6161961724675835e-03  1.0983730821717473e-01  8.8763355442054284e-02  1.8838872136858844e-03  -8.7466055465573924e-03  1.5965955701978427e-02  5.0452216768785613e-02  3.2358903657144189e-04  4.9347143509023538e-03  9.8669818264543875e-04  1.2090798647411409e-03  1.2047560982796592e-01  4.2242980590421544e-03  2.2640668001458963e-04  7.5303077186745435e-03  4.2916491040458447e-03  -2.9021872368877176e-11  9.0108300721019927e-02  2.1412954729250599e-03  2.4086669448175092e-03  -7.4631524301714536e-04  1.8481415660127191e-03  6.0528931063010688e-03  1.0953539996288138e-01  1.2471189292987699e-01  4.3236582711150362e-04  1.7336690794827183e-03  8.5788481612455308e-02  9.9458801193479551e-02  1.2186274836368539e-01  3.9589239560825279e-03  3.6822294342249741e-03  3.2306935542454835e-03  1.5750493145125209e-03  3.8723583342687232e-03  1.2552723311517728e-02  4.4829302782037304e-03  1.7789455508959624e-03  1.1360220626866693e-01  1.7206679326639525e-03  1.9147513423619213e-03  2.0367469950922749e-03  4.6582683394379758e-02  9.0342360716594600e-02  8.2199648934237909e-02  4.0470181547956671e-03  1.1205429673466789e-01  1.4582567318484074e-02  6.2167677297724801e-03  -4.9085678830283622e-03  1.8300194331545094e-04  3.1201579699880654e-04  -1.2437926126096044e-03  3.2011275955059188e-12  1.3385069957789378e-01  8.7618370980327057e-02  2.8015773478249329e-03  2.2628456297180324e-03  2.0238850501121098e-03  2.6719767289278139e-03  5.6188632062714556e-03  1.0232663349963744e-01  9.2828328048937647e-02  1.6082518027240682e-02  3.0112251992772919e-03  6.3935294061038830e-02  -5.1414212722307245e-04  2.5348606296821071e-03  9.2745009667477459e-03  5.9001158975449620e-03  3.0804055088241591e-02  7.3699790283381699e-03  4.4067433571519680e-03  5.7801714782523324e-03  8.0852938120595330e-04  8.8185625206371960e-04  3.6800049597133160e-04  8.0065117895046681e-02  5.2986643174146517e-02  4.2055644114396907e-03  2.8035571776042247e-03  -5.8547582664821443e-03  1.0624620552427649e-03  4.8600220285367150e-03  5.5240377875468939e-03  4.9096753209640388e-03  1.1642777075777143e-01  8.6129338749096479e-03  -3.3437274450363427e-03  -2.5182718264114778e-03  1.0791658705532806e-01  3.3807249901583623e-03  8.3565911551559513e-02  -2.7358518033180563e-03  1.0295077287794660e-01  3.4647766959283914e-03  2.5730048246191575e-03  1.1682596397939522e-03  8.9198279564264876e-02  -8.9077130209660972e-04  -3.9751677192507442e-04  -2.9021872368877176e-11  2.2441844840454797e-03  2.0841502147095790e-03  4.4579648370265713e-03  5.2873165307116381e-03  9.0138737617482423e-02  8.7795659946393489e-02  3.2688110758456938e-03  -3.2020790732823379e-04  3.0993942776485310e-03  1.3880265089164534e-03  4.4925125507681799e-03  4.2794794773497449e-03  5.2291101698477994e-03  7.3870980289899552e-02  1.9464943247825390e-03  -1.7590450473245671e-03  -2.2243692296401120e-03  7.0932525038852083e-03  2.8448136040333206e-03  2.1905783486144310e-03  2.4076350365798836e-03  4.7635537702035565e-03  5.6913552580066303e-03  3.1878328395476942e-03  3.0500379645368473e-03  1.0023542606623771e-01  1.1009270588135649e-01  6.1390509712297954e-03  1.1697017195183507e-01  1.0610779883345987e-01  5.1807474676147693e-03  1.3872132028136665e-03  3.3610048922642222e-04  -1.0740438835375232e-04  3.1360993667924617e-03  8.6910567462422693e-04  1.0028105995350479e-03  7.7582724556289243e-02  3.8288995583634043e-03  3.1674803850308270e-03  -1.2989572617796365e-03  8.1213735109417706e-02  -1.1793903285343202e-03  6.1663633705914033e-03  -2.5321788722352089e-03  1.1950213754558184e-01  1.0846977994273720e-01  5.0314377747243252e-03  2.3109957807296994e-03  5.9654091054671321e-03  8.8947720708823508e-03  1.0660360707331756e-02  1.0777651218966823e-01  5.4486752017876561e-03  9.2749869180998784e-02  3.3858035474862852e-03  6.9737568548420378e-02  8.2535351773711514e-04  4.7231335764257518e-03  6.1940770588559653e-03  1.0696506330378854e-01  2.4965041047163728e-03  1.7319571726547071e-03  1.4085986248931700e-03  