<?xml version="1.0"?>
<VTKFile type="UnstructuredGrid"  version="0.1"  >
<UnstructuredGrid>
<Piece  NumberOfPoints="1404" NumberOfCells="2604">
<Points>
<DataArray  type="Float64"  NumberOfComponents="3"  format="ascii">0 0.41 0  0 0 0  2.2 0 0  2.2 0.41 0  0.2353553390593274 0.2353553390593274 0  0.25 0.2 0  0.2353553390593274 0.1646446609406726 0  0.2 0.15 0  0.1646446609406726 0.1646446609406726 0  0.15 0.2 0  0.1646446609406726 0.2353553390593274 0  0.2 0.25 0  0.6923879532511287 0.188268343236509 0  0.7 0.15 0  0.6923879532511287 0.1117316567634909 0  0.6707106781186547 0.07928932188134523 0  0.6382683432365089 0.05761204674887133 0  0.6 0.04999999999999999 0  0.5617316567634909 0.05761204674887134 0  0.5292893218813453 0.07928932188134524 0  0.5076120467488713 0.111731656763491 0  0.5 0.15 0  0.5076120467488713 0.188268343236509 0  0.5292893218813453 0.2207106781186547 0  0.561731656763491 0.2423879532511287 0  0.6 0.25 0  0.6382683432365089 0.2423879532511287 0  0.6707106781186547 0.2207106781186547 0  1.1 0 0  0 0.205 0  1.1 0.41 0  0.55 0 0  0.55 0.41 0  0.275 0 0  0.8250000000000001 0 0  0.275 0.41 0  0.8250000000000001 0.41 0  0.6875 0 0  0.61875 0 0  1.65 0.41 0  1.65 0 0  1.375 0 0  1.375 0.41 0  1.925 0 0  1.925 0.41 0  1.5125 0.205 0  1.7875 0.205 0  0.9625000000000001 0.205 0  1.2375 0.205 0  2.2 0.205 0  1.99375 0.2152743902439024 0  0.4125 0.41 0  2.0625 0 0  2.0625 0.41 0  2.2 0.3075 0  1.7875 0.41 0  1.375 0.1486128048780488 0  1.5125 0 0  1.7875 0 0  1.5125 0.41 0  0.9625000000000001 0.41 0  0.4125 0 0  0.1375 0 0  0.1375 0.41 0  0.6875 0.41 0  0.9625000000000001 0 0  1.2375 0 0  1.1 0.1486128048780488 0  1.2375 0.41 0  1.65 0.1486128048780487 0  0.823495464168302 0.2603780552348366 0  0.3738707794507017 0.2720196349488618 0  0.3662291281331582 0.1311456406657909 0  1.676715909090909 0.2793064024390244 0  1.126715909090909 0.2793064024390244 0  1.348284090909091 0.2793064024390244 0  0.8287581077665108 0.1302150898054257 0  1.894702181800738 0.1282910975492754 0  2.092797818199262 0.1282910975492754 0  1.85625 0.3075 0  0 0.3075 0  0 0.1025 0  2.099172119769978 0.25625 0  0.4752414543992246 0.3180372603390748 0  1.99375 0.08395950269330846 0  1.459960956013612 0.3075 0  1.569025960719943 0.2986889805672169 0  1.03125 0.3278689922742084 0  1.959375 0.3126371951219512 0  1.749222215368287 0.1025 0  1.275777784631713 0.1025 0  0.9228016959331474 0.3075 0  1.000777784631713 0.1025 0  2.2 0.1025 0  1.225938124459196 0.3075 0  1.550777784631713 0.1025 0  1.44375 0.07430640243902442 0  1.16875 0.07430640243902439 0  0.7562500000000001 0.3358727844323386 0  0.89375 0 0  1.899250267340833 0.2229966846119207 0  0.61875 0.41 0  1.766482954545455 0.2934032012195123 0  1.046078563095834 0.2389031808701145 0  1.421109702350723 0.2261157654379721 0  0.07567171807980319 0.25625 0  0.2511897295290552 0.3235829392832554 0  0.07655002503762308 0.1488653460959645 0  0.1377245246847496 0.3206030474919778 0  0.6694099692696568 0.3242771941727899 0  0.9168971191497528 0.1295727156104653 0  0.7562500000000001 0 0  2.118919042110979 0.3422084711244843 0  2.13125 0 0  0.06875000000000001 0 0  1.30625 0.41 0  1.597888256393107 0.2173787389261347 0  0.34375 0.41 0  0.2493272016354703 0.08091360081773515 0  0.5588896233436766 0.3264056208677571 0  1.829299675393195 0.07400700849299596 0  0.1334079128307869 0.08523463035786674 0  1.71875 0.41 0  0.06875000000000001 0.41 0  1.16875 0.41 0  2.038220665644273 0.332420740103091 0  0.8810647413215221 0.2027360103977071 0  0.34375 0 0  0.7453891198966415 0.2471459041008237 0  0.42112093004955 0.1988123139090554 0  0.8314023090855964 0.3351170841770613 0  0.89375 0.41 0  0.7906250000000001 0.06615386481594063 0  1.452769549894695 0.1548122580621249 0  1.369219062229598 0.07430640243902442 0  1.30625 0 0  1.07420695807087 0.07430640243902439 0  1.720943423819132 0.1714577452753128 0  1.157188124459196 0.205 0  1.304056576180868 0.1714577452753128 0  1.67579304192913 0.07430640243902437 0  1.209670467133757 0.136210026696477 0  0.4312800784902823 0.08036147352247747 0  0.8723959680194693 0.07066860609690805 0  1.025335513626278 0.1700681449722324 0  0.7945632284247136 0.1940204203251442 0  0.378125 0.3452261501101892 0  0.3307109909790086 0.2037165635083759 0  0.3009701032039409 0.2702970083403109 0  0.20625 0.41 0  1.58125 0 0  0.4812500000000001 0 0  0.9838963872396855 0.2722244191167347 0  0.06772484939107212 0.3260067317374387 0  0.20625 0 0  1.58125 0.41 0  1.631724228912893 0.3381867502687533 0  1.825608881788174 0.14499488549201 0  1.85625 0 0  1.44375 0 0  1.44375 0.41 0  1.85625 0.41 0  2.13125 0.41 0  0.7562500000000001 0.41 0  0.4812500000000001 0.41 0  1.16875 0 0  1.03125 0.41 0  1.03125 0 0  1.71875 0 0  1.99375 0 0  1.99375 0.41 0  0.9408708167433545 0.0651989315768642 0  1.340625 0.3489494290853124 0  1.134375 0.3489494290853123 0  1.700180620188976 0.3438659752031281 0  0.29668452290037 0.1318471691375986 0  0.3175441051360096 0.06496934809856265 0  0.06509151636162461 0.08140814015999148 0  2.135782184673599 0.07126652247502523 0  1.668441847249787 0.2129203728327609 0  1.295782514339747 0.2378437748815763 0  1.409375 0.3520314716057996 0  2.129248544730567 0.1906135162504124 0  2.060771381434487 0.1989445750470348 0  2.013252586573865 0.1496169464686054 0  1.942766402200229 0.1734448904596831 0  1.895522487186454 0.06076163953489683 0  2.069553871656643 0.06605731020975725 0  0.4670911801404742 0.2498408582391372 0  0.7622743084658112 0.1264100838268133 0  1.274680914880868 0.3520219391081363 0  0.3148669572599245 0.3331753056385887 0  1.614713220494657 0.09473434380863296 0  1.72990325744076 0.2380068107952482 0  1.356580098625191 0.2120393231351682 0  2.034370752044885 0.2668681600792073 0  1.51768709249349 0.3426260931494756 0  1.561883724969884 0.1650446847858835 0  1.197344062229598 0.2523725417393646 0  1.804085235518364 0.3468178408964637 0  1.817887819205233 0.2589243285818559 0  1.905897727272727 0.3485060975609756 0  0.7296439733931823 0.06337466644369745 0  0.4250935971865949 0.1394919578475796 0  0.3773030136511669 0.05130372097998036 0  1.192836486056382 0.3562350748565544 0  1.1029124365364 0.226143510831178 0  1.28257088594801 0.2944411014911587 0  0.1905185804731426 0.06029880676029167 0  1.474860187679412 0.2504218616229368 0  1.406767003493824 0.2829282258560709 0  0.5209826960981064 0.2830664557824064 0  0.5131119502780163 0.3617405848213254 0  0.1948220106098172 0.3081993407644811 0  1.845656689180403 0.1998310418452388 0  2.144958525570388 0.2909790873294231 0  2.2 0.15375 0  0.8833025251326762 0.2625402923007629 0  0.171875 0.3653875762360952 0  1.57794966442982 0.3540357145964566 0  0.446875 0.366068291212731 0  0.4272051715206439 0.2891929346190664 0  1.508991196088596 0.1421783375065625 0  1.50436820029908 0.06143401634903343 0  1.223857000523521 0.08235548624535324 0  0.6137904613287555 0.3066826366281556 0  1.153316824384777 0.1289850171317838 0  0.9751573703656133 0.327632618473408 0  2.148922302309752 0.1258841779285271 0  0.9281250000000001 0.3643758685795699 0  1.621993280276081 0.2841214267927899 0  1.550118654119087 0.2461998729100966 0  1.327182649291491 0.1216967252533594 0  0.9939955742738924 0.04663549843168518 0  1.753125 0.04556020050186112 0  1.271875 0.04556020050186116 0  0.9734326767716519 0.1506854560854393 0  0.103125 0.3675775577080512 0  1.94956388244759 0.1180512551534177 0  1.949997712993411 0.04965831614304109 0  0.717433898748555 0.295596016333797 0  1.771961817615021 0.1530278789497521 0  1.909246823951428 0.2812757146784527 0  0 0.35875 0  1.050632804931928 0.1226269704412814 0  0.05695108326502596 0.2024009637347154 0  1.948575539857022 0.2445328248721197 0  1.697271520964565 0.1233917627620729 0  1.065625 0.3689344961371042 0  1.085849084308977 0.3170853572226867 0  0.1015495998772944 0.04226029099983852 0  1.577403511714593 0.05463601888079143 0  1.751571320346033 0.3651102912045228 0  2.2 0.35875 0  0.7441773632462837 0.1786786606458751 0  0 0.05125 0  1.466879772203159 0.3611261772912453 0  0.6282230348858767 0.3577675483994025 0  1.990280163552011 0.3564754268533217 0  1.17471064520912 0.2990917256188288 0  0 0.25625 0  2.2 0.25625 0  2.2 0.05125 0  0 0.15375 0  1.853978576207987 0.35875 0  1.515638456102889 0.2882700110184686 0  2.150453692751374 0.2387066338105111 0  1.323782677156475 0.04897634338873398 0  1.409375 0.03715320121951221 0  1.406484531114799 0.1087852750766809 0  1.134375 0.03715320121951219 0  0.721875 0.3729363922161693 0  0.7941695928236929 0.3696489254637395 0  0.7934827162619036 0.3013409431456604 0  1.627401732573545 0.04552157221025036 0  0.9352049974617431 0.2507047965699472 0  0.8763260682738339 0.3611103317460093 0  2.045405893604797 0.1105340662939892 0  1.255408269734577 0.1577307500159216 0  2.028125 0.03707597992059326 0  1.003030137506755 0.3689344961371042 0  1.248258025468107 0.2565907092181813 0  1.203125 0.03661323374043041 0  0.4800125512335631 0.0549472816999725 0  2.072662025974815 0.2975086504196739 0  0.240625 0.3729825336867542 0  1.113252391110535 0.10238286244357 0  1.071052763974265 0.1885202618768825 0  0.8738809401657862 0.3106483608284829 0  0.6786819423003397 0.2677558482644021 0  1.887722846421017 0.1760882698830035 0  1.472640588990488 0.1118278026240017 0  0.5843750000000001 0.41 0  1.865937103925594 0.2604137786483804 0  1.463913572748262 0.2030442564990043 0  1.376426316059077 0.3186741374914345 0  0.1038643885363755 0.2162701735320032 0  0.1769473813227781 0.1070849728467114 0  0.458787839809176 0.171541653775316 0  0.240625 0 0  0.04179569703428024 0.2877217852556549 0  0.1258346557601885 0.2699740073054968 0  1.722140693354707 0.282908100935778 0  0.41206179117512 0.2448172567039922 0  0.3702471778075604 0.2265217604228704 0  0.3714881805374215 0.1786967818665642 0  1.77397096061971 0.2481483237422926 0  2.105123889160691 0.03743885948498647 0  1.001138337938679 0.229719337663998 0  1.051242910646791 0.2854826559431138 0  1.395420985247586 0.18
[...]
<PointData  Scalars="f_43"> 
<DataArray  type="Float64"  Name="f_43"  format="ascii">1.1269232251118624e-01  2.0858987170038001e-01  6.2116504171352622e-11  1.1553084375329350e-10  8.7693968390585741e-02  8.8305772271049465e-02  7.0958436516852463e-02  7.0733427017308406e-02  1.4466015546047487e-01  1.4049309339205607e-01  8.9504735450476089e-02  7.6568140252211037e-02  -5.6242451503637418e-04  1.0912936621868931e-02  1.1622112245872850e-02  6.0823990337723465e-03  4.8413284091811039e-02  1.7342608763708720e-02  7.1907909329564619e-03  9.8441654156048886e-02  1.4156002634461456e-01  1.3570429899435271e-01  8.9555484319423284e-02  3.8438917818605908e-02  -6.5989099938836950e-03  -3.3691832543021487e-02  -2.9758620465903267e-02  -1.2051603307838053e-02  2.2948920949871512e-02  1.2186981581371989e-01  2.0995783469906770e-02  6.7568799551057074e-02  5.0594941670922836e-02  1.0619892640342793e-01  2.0653405132729483e-02  9.9570683763655146e-02  1.5233761724059556e-02  1.5577683913528796e-02  2.2597415732098770e-02  1.1058080040866189e-02  1.1065084716329051e-02  1.6737037977658475e-02  1.6455088618056071e-02  5.5374193972587858e-03  5.5365061613297803e-03  1.3833800132796493e-02  8.2992564451134735e-03  2.5210496043481818e-02  1.9369172116687015e-02  1.1600241047946014e-10  4.1491763035853566e-03  8.6969847184607554e-02  2.7662229728419416e-03  2.7642928654960462e-03  1.2675288710764062e-10  8.2910537480514208e-03  1.6662931374745983e-02  1.3877312493809182e-02  8.3096072682255582e-03  1.3793734011378091e-02  2.1029141891603449e-02  1.1159080414791747e-01  1.1856860738523387e-01  1.1481488904651997e-01  1.5353203716132425e-02  2.5140844043977047e-02  1.9740763426664650e-02  2.2503403824132719e-02  1.8972012231025796e-02  1.1074173747376650e-02  1.7349889440449084e-02  1.0163444369313576e-01  1.0889891413464800e-01  1.0523900951866959e-02  2.1147291522535354e-02  1.7046134565398777e-02  2.3525881940568219e-02  6.1416008746365018e-03  2.1578252016379714e-03  6.9108438115421406e-03  1.1311886709664330e-01  1.3239973543251773e-01  2.0266822530311734e-03  7.5419589163845155e-02  4.1498122001089712e-03  1.4839422187447982e-02  1.2677060829494824e-02  2.1972422550248803e-02  4.8398092147025531e-03  9.0754152758490692e-03  1.8805868123263229e-02  2.2537935566158015e-02  2.4705909764314346e-02  1.4632734213892320e-10  1.9292842395073312e-02  1.3087829834212306e-02  1.5284540250837910e-02  2.1242958269129177e-02  1.2620685381011770e-02  2.4103480160541500e-02  6.0497240633931790e-03  2.7544834867382358e-02  8.7152464863434233e-03  2.3001259038016364e-02  1.5656838915151853e-02  1.1696419208077313e-01  9.6447782648615310e-02  1.3241611691800295e-01  1.1020253090689192e-01  6.1719927725733649e-03  2.5644920387557973e-02  1.6500144626300735e-02  1.6328145235843922e-03  1.3686037874026109e-03  1.3233762255604375e-01  1.7755762906597843e-02  1.2112352377260563e-02  9.3486234701082235e-02  1.0028991973143664e-01  3.5822352686090214e-02  7.4629730761460907e-03  1.2530783778755514e-01  9.6804405106915622e-03  1.1341071349980478e-01  2.0080265957240377e-02  3.2566371630150656e-03  2.5086215466729463e-02  1.0761557857471969e-01  -1.2326795306179851e-03  1.0584205752528435e-01  1.7391549833527292e-02  1.8821115786483700e-02  2.0290166196166182e-02  1.5066820013675333e-02  1.6846024870238983e-02  1.8218304806358419e-02  2.3373316043053410e-02  9.6411273036988900e-03  2.0996815303546787e-02  1.8088272474179611e-02  1.0559624758485080e-02  2.0154950555244251e-02  1.1942186586124122e-01  2.3711035533880463e-02  2.4046131791914983e-02  1.2416710192712460e-02  9.2372789446005035e-02  9.6635292734683326e-02  9.6219904738115286e-02  1.0914525700449651e-01  1.2469775833604818e-02  1.1032177751868497e-01  2.3599322120269793e-02  1.1241466941161563e-01  1.1026230938253270e-01  1.2417153166881604e-02  1.1422224454061863e-02  7.5341757469474663e-03  6.9140523950241240e-03  1.5299098781727345e-02  1.5142796641194656e-02  6.9074863885117618e-03  1.3720056476612648e-03  1.3114057149900779e-02  7.3281288724467930e-02  2.1330033690241803e-02  2.1471240715823528e-02  2.4399342113721953e-02  9.6832935760810517e-03  4.1413934703299219e-03  4.1482766202422189e-03  2.4986118737277810e-02  1.7131614464131643e-02  2.0660744974960885e-02  1.0051497979551792e-02  9.2656943228098254e-02  1.0676639536601992e-01  1.3248981830605858e-01  1.2929254447950553e-03  1.0695251991568837e-02  1.8132472353054742e-02  1.5807620883034418e-02  1.4217610237341534e-03  2.7992674393549628e-03  3.7553760812710593e-03  5.1727290621004169e-03  6.1229471217606806e-03  2.6242276264164142e-03  8.5788390172297932e-02  1.6629023075723531e-02  1.8340850445202644e-02  9.6799320159344324e-02  1.1790434320936551e-02  9.4570122035216725e-03  1.6963766907288385e-02  3.3323542384108740e-03  1.3690096431511548e-02  1.2850056028073606e-02  1.9997556011903058e-02  7.9617897053296770e-03  7.6841021621050429e-03  5.9160124593547816e-03  1.7034116664489111e-02  1.2124158441956048e-01  1.1071891052909773e-01  1.9747901763985574e-02  2.1972987750284386e-02  1.8277420849206111e-02  1.1126145393678243e-01  1.4570214508431578e-02  1.5897652446931188e-02  4.8512910607554589e-02  6.1944746876273757e-02  9.7513905255234803e-02  7.1274263897261802e-03  1.1059230681320325e-03  -1.4946838997702999e-10  2.4029123644793711e-02  1.1130652318982176e-01  1.2491727357471543e-02  8.0915250040382622e-02  9.2892236144536663e-02  1.3925773006908180e-02  1.4042977727755819e-02  1.9979578598193368e-02  2.1525601073026112e-03  2.1410407944066498e-02  2.2176776434026532e-02  1.0282979992378876e-03  2.0516851027420201e-02  1.1620857337473239e-02  1.3066320694437372e-02  1.7685389755541400e-02  2.4816030993892818e-02  9.0002798791326590e-03  1.8956191759775875e-02  2.5186788171054283e-02  1.1315267022465270e-01  5.0367874626389090e-03  5.0258936458982975e-03  1.4846175236601432e-03  8.6151998684679178e-03  5.8464833138500696e-03  1.1256745155329095e-01  2.3702426233987699e-02  1.2444618290103503e-01  5.0560531545468862e-03  1.0119448180933655e-02  2.1394886303642703e-02  2.1501591541822001e-02  1.2716505949417262e-01  1.2551875675114911e-02  9.0169041854502741e-03  1.1553084375329350e-10  6.5647627092196674e-03  1.4132794056317041e-01  1.4687637887356431e-02  2.1330622776383291e-02  4.2194370014311056e-03  2.0216457176058193e-02  1.1619212581207695e-01  1.1600241047946014e-10  6.2116504171352622e-11  1.2753038375878953e-01  6.9559781442905212e-03  1.3743052351000798e-02  9.9635081706725436e-04  1.7825174019097584e-02  1.6012569342324947e-02  1.6043902459200943e-02  2.2106445408246474e-02  1.4286702434081124e-02  1.4908571867308413e-02  1.4294161872778688e-02  1.1536457923827124e-02  2.4922520824878596e-02  1.8516915896883580e-02  3.1112819408825811e-03  1.9126298130889313e-02  3.4621504858873293e-03  2.1595649787665126e-02  1.9012423391186320e-02  2.0509398265034302e-02  1.1290420283486745e-01  2.5631706683913063e-03  1.0335694745064024e-01  2.2412810650613204e-02  2.2910792501802460e-02  2.1023803501263049e-02  -1.2653354976740907e-02  6.2806796441329448e-03  1.4678145687994948e-02  3.8099323096483291e-02  6.7182398095603571e-03  1.4813202431120640e-02  1.6464369368649232e-02  1.2733581690682352e-01  1.1222669563325151e-01  1.1631093741374884e-01  1.0736348596722665e-01  1.1406340293827479e-01  1.0939221252128117e-01  9.6096768028322756e-03  1.0081039331195822e-01  1.0262362412327034e-01  1.0331212869029735e-01  8.5699223117561060e-03  1.9110668152603951e-03  2.4067732821123806e-02  2.2339330265720870e-02  1.6203917653851943e-02  3.4623455893249334e-03  8.8154105522533527e-02  1.2023262599676211e-02  1.3122404647373356e-01  1.3690945197866999e-01  2.2378078447339772e-02  2.5409983014695922e-02  9.7080259295266105e-02  7.8010118376694035e-03  4.2147008700804131e-03  9.6623557498398904e-02  8.8527480186266952e-02  9.3222236108777751e-02  7.5059540892646968e-04  2.0801771349028219e-03  2.5081691854218473e-03  2.5849279647268533e-02  2.5247404266849009e-02  1.1748560487324464e-02  1.6754787257616040e-02  8.1828585649795279e-03  4.2127225290226659e-02  1.3243800352525795e-01  1.1260795355839687e-01  3.9012435714956776e-03  1.6401425850346103e-02  4.0868404827396499e-03  9.6186637668940311e-02  9.8443777444070693e-02  2.0267777599853373e-02  1.4579609928320922e-02  1.1442297050623967e-02  1.3115579884069311e-02  2.4147295971844673e-02  1.0405382423608360e-02  9.9012956784286146e-03  8.1826186424950619e-04  8.1481302327683907e-04  1.3486738001978812e-01  1.3760467947448410e-01  1.1263502949199347e-01  1.1857007765735772e-01  2.2567309824850296e-02  2.1447833419533310e-02  1.1367458538890728e-02  8.1065563411304737e-03  6.6810703171250865e-03  9.8067074104688734e-02  8.4874099944277512e-02  1.0646373621286156e-01  1.3183941442192086e-02  5.0978476682765053e-03  2.0633704877605255e-02  1.4192832851224721e-01  2.3106889546706318e-02  7.6098219978495566e-03  9.3298171878807255e-03  1.0780275754429119e-02  1.1504449406928016e-01  2.8830789241864043e-03  1.0460938870829861e-01  9.4064710070867835e-02  1.3008226899618764e-02  1.9039104095516176e-02  1.0030960406309032e-01  2.1294909643108702e-03  1.4789508816045556e-02  2.5776773900245978e-02  1.0831156789125401e-01  1.2266043120985563e-02  1.7658909383040471e-02  1.1182865727254382e-01  1.0642167860890732e-01  8.5577566263850408e-02  2.4883642136228078e-02  2.4214416675090292e-02  2.1137706548663100e-02  2.1590034059306828e-02  7.8772934587615316e-04  1.3210135340226459e-01  1.7522925117374976e-02  8.5842838582199335e-02  1.0328677299365464e-01  8.0353781964063904e-03  -1.4964026853671161e-03  4.2388595763971533e-03  5.5727075078111629e-02  6.2191249248566890e-03  1.0044818403596960e-01  6.8938341406995741e-03  6.2223642401122627e-03  5.4592362625698644e-03  9.3828523700320063e-02  1.3895862274482799e-02  2.2139209221387370e-02  9.8119986639765601e-03  2.4112749936235200e-02  2.3023770206848489e-02  1.0765198040826719e-02  1.1017197050002219e-02  9.0027515821324983e-02  1.1922242654970051e-01  3.2788600351433828e-03  1.5856690866666735e-02  9.5982904071633707e-02  1.0299334837799816e-02  1.2813125305084247e-01  8.4881869450642369e-03  5.8022687613570609e-03  1.5690384147328887e-02  2.6243960333019942e-02  1.4310618540439760e-02  -1.0025179359994967e-02  3.3660385109247756e-03  1.5175996592334451e-02  1.3816242270392251e-02  1.1265358316719591e-01  1.8742366351896928e-02  1.6508220369929966e-02  2.1242621664891541e-02  1.8174559338387061e-02  1.3525729453505395e-02  2.3703647645230183e-02  1.8245310136844640e-02  1.8587340493017090e-02  2.1689872473017551e-02  9.1066306579656031e-03  1.8566961901824029e-02  9.4105203493193134e-03  1.8390093697190604e-02  1.6813933140386230e-02  1.7044833620730736e-02  1.0348234029531897e-02  1.7398794607847996e-02  4.5494624435927361e-03  9.0700088992466552e-02  1.9447965349386299e-02  2.0626507199134315e-02  1.2011789047187140e-02  1.0705593642926593e-02  2.4720307906861812e-02  2.4948203279573759e-02  1.1508887027605960e-02  1.2169674259130129e-02  1.3450929229641584e-02  8.7355362402397913e-02  9.0607841947549367e-02  2.2645577756876256e-02  7.6119136366802871e-03  9.5436819455332653e-02  2.7550353512701305e-03  3.4768058926822080e-03  1.8066740505868539e-02  1.8368219975638880e-03  1.4275575200141249e-02  2.9531103881520050e-03  1.6676476846921797e-03  7.3841577827807932e-04  8.6081352179559721e-03  1.3245466919645808e-02  2.3522779721656391e-02  2.4369045383949201e-02  2.4738916264413956e-02  2.2938026593676396e-02  1.3657959601451217e-01  1.1392502952570176e-01  1.6029931140157414e-02  2.1125798334722605e-02  1.0928028941773472e-01  1.2841257559525516e-02  7.0663251046835021e-04  1.6080046490705500e-03  4.8872381378284877e-03  1.8391248749705814e-03  2.0014645675164266e-02  6.8733530524200471e-03  8.0040765923724624e-03  1.8370023826351608e-02  2.0586354411304165e-02  -7.4831127482425583e-03  3.7643470077077926e-02  2.5011226259633566e-02  2.3694770320069416e-02  2.3131337088988103e-02  2.0216672227081366e-02  2.0569747023722475e-02  1.7714684430149882e-02  1.7115993244377459e-02  1.6482722375680575e-02  2.0714516702673356e-02  1.0023647968753104e-01  1.0828985688922968e-01  1.5469999690847480e-02  1.5732317435065619e-03  1.9548595081582930e-02  6.9578279079155628e-03  2.2189958161962765e-02  1.9712506952712826e-02  2.4563021610200367e-02  1.5790942368948856e-02  1.0357279277729021e-02  4.1595029267452958e-03  3.4383996798352389e-03  2.3401566896929467e-02  4.8213943259450857e-03  1.8361800789702471e-02  2.0806571651774533e-02  1.0816011664722577e-01  1.1333737660129935e-01  2.1309755404369312e-02  1.7468425327228303e-02  7.0046535727339928e-04  2.0552903604341925e-03  1.3389617468561417e-02  2.2141228991710202e-02  1.6025249334818296e-02  1.4460552675883630e-02  8.9865081827174877e-03  2.1305662096278412e-02  8.9965912376748398e-03  2.0222189420044171e-02  1.5803147813573466e-02  6.9192008878057171e-04  1.1245841385942368e-01  8.1492759687648145e-02  1.0960696843583106e-01  1.0407728152962710e-01  1.2239680881566133e-01  1.1448369677779625e-01  1.1326098482085642e-01  1.1271208655349810e-01  1.7051066804042208e-02  1.3876033679529540e-02  6.2937884307847400e-02  1.9670130149557090e-02  2.1315278547178917e-02  2.0529934539236731e-02  2.1473954117053006e-02  1.1781648297195942e-02  4.8364516664919002e-03  1.8965483039131807e-02  2.4905127456030688e-02  3.4602940106886674e-03  4.8301317176395776e-03  2.4898284586327313e-02  9.6999724812231337e-03  9.8559845312796143e-02  7.3390839982252293e-02  5.8154011562123180e-02  2.2470966596311891e-02  3.8084829961516622e-03  1.2935578500240161e-01  1.5365131076069712e-02  2.0909749696698600e-02  1.5059900272995853e-02  3.2268716268859292e-02  1.0040726430740834e-01  1.7367781130998780e-02  1.7749926313447309e-02  8.4079453037977051e-02  2.0194535039564553e-02  1.3289626692937456e-02  1.4163900370573468e-02  5.8784339767870191e-03  1.5200490764819871e-02  1.5468577719821849e-02  1.0029538407032591e-02  6.1842235606950858e-03  2.0538711417009782e-02  9.9279199527757492e-03  7.4692368792167270e-03  1.0697033249596132e-02  1.7835425050843217e-02  5.5108517098192309e-03  1.4132627602813686e-02  1.2124328889171108e-02  2.7891947404777885e-03  2.2692066746188401e-03  1.1076253299919316e-01  7.2481914395290101e-02  2.5941073962984812e-02  1.9382094255276670e-02  1.6860961096771106e-02  1.8883966259339850e-02  5.5432808373931108e-03  5.7453644497425403e-03  2.2914749495616202e-03  2.2993282856213545e-02  3.2238728656732714e-03  7.9524173390010684e-03  1.0724178543466749e-01  7.3610529394450164e-03  1.0103104818658117e-02  7.1862410774965208e-03  4.8060849159876524e-03  1.1191214174202305e-01  6.3683398574039497e-04  9.7226162093477942e-03  1.2698454471151388e-02  9.1121180569323598e-02  -2.2669635463766016e-02  1.2470456649315467e-02  1.1230988486365284e-02  5.8750944674222051e-03  1.3140407672125168e-01  1.2765122073845996e-02  1.6343384063436286e-02  1.2134954611963462e-02  2.5239466821687363e-02  1.1142192230114549e-01  1.1595276984223335e-01  1.3426434789716233e-02  1.7383363436449910e-02  1.2668651485570820e-01  1.1272402443659665e-01  6.5676890640472196e-03  2.1684900708393708e-02  5.2073753892616049e-03  1.9643991296001542e-02  2.1528770529509359e-02  1.2821612114209924e-02  7.8229260550101189e-03  1.9751044117048124e-02  9.1099848751653254e-03  1.1744632793301933e-01  1.0483542784780468e-01  2.1703580383775598e-02  1.8870949593163940e-02  1.9472212237666337e-02  2.0513746204730204e-02  1.0813210315639064e-02  1.4648961387568556e-02  2.9517940111726086e-02  8.1755847461436951e-03  7.3123562502337182e-03  2.1446232910328957e-03  1.4181824720058214e-02  4.5389500313995287e-03  1.6188783385924432e-01  1.1266886410684204e-01  1.3291970757005528e-02  6.0627817751674985e-03  1.3702390647609084e-02  1.0777044703680087e-01  1.8058138802364017e-02  1.3077456990356598e-02  1.1402298947246010e-01  9.0218147058662546e-02  4.4199941423942032e-03  1.1361622643532332e-01  9.7721673256735850e-02  1.7034145673779821e-02  1.1227248682320983e-02  3.3200580291267427e-02  5.3917576391236718e-02  1.9267049681527097e-02  7.2545313665538548e-03  2.5608414008285181e-02  2.0154505734170289e-03  1.2422165122730343e-01  7.5001610688941291e-03  1.9531680712181289e-02  1.1491036422883643e-02  6.4632685432820594e-03  1.1600241047946014e-10  9.7226970296400081e-02  2.3168181323500486e-02  2.4372722546223757e-02  2.4570255187185256e-02  2.1684932281087109e-02  1.1093962150505753e-02  1.1652710963778436e-01  1.2468581197901957e-01  7.1381079693791437e-04  2.7315662342577707e-03  9.1958580276618740e-02  1.0354409478195614e-01  1.2779075143586840e-01  6.1154800923476377e-03  1.6238843745177547e-02  1.5051271740940647e-02  1.4601410125402095e-02  1.4199124014541802e-02  1.5384505612433999e-02  6.6322941042617541e-03  2.1850753100882515e-02  1.1705811327717532e-01  1.6469735130162207e-02  1.5674094867591786e-02  2.1904192696669759e-02  4.9476756356568785e-02  9.5655619490082777e-02  8.6828321432268998e-02  6.5215205597302746e-03  1.1607999019853250e-01  1.6564689128308909e-02  9.3861823868998367e-03  -4.5078543055287867e-03  2.2524408127659542e-02  2.1568356954101170e-02  2.1507773700392009e-02  1.4632734213892320e-10  1.2815474497368337e-01  9.5296301153563842e-02  1.8875150024064626e-02  1.8418609503364086e-02  2.4912250982439751e-02  1.8225404395791657e-02  9.4628927478095769e-03  1.0741791787259362e-01  1.0381502312970352e-01  2.1677797764049860e-02  2.1047632947565072e-02  6.7409922361284721e-02  2.4495837064367480e-02  3.8673996879790779e-03  1.4501341351360749e-02  1.1268209686161886e-02  3.3204362930011742e-02  1.6145739305731922e-02  1.1569923937348748e-02  8.6415789952661391e-03  1.2739177423774554e-03  1.4032196404106265e-03  5.8390551411755161e-04  8.4111565729752924e-02  6.8083800883781631e-02  6.5931470373868850e-03  4.2782881150676254e-03  -4.1314426749830702e-03  1.9307183545336469e-02  1.8374000389633296e-02  9.3447177976558413e-03  8.5733164920792134e-03  1.2017811767001124e-01  1.2238540633364790e-02  2.0779594035160543e-02  2.1929562013779602e-02  1.1303050902004956e-01  1.7374799592599216e-02  9.0493914946786144e-02  1.1921145013421066e-02  1.1052336223078014e-01  1.9362805635912448e-02  1.8632104329880425e-02  1.5220885821034836e-02  9.6222024555514790e-02  1.1434671039840095e-02  2.4958290006338830e-02  1.1600241047946014e-10  2.2081805159760388e-02  2.2971922976739511e-02  1.2535708868491658e-02  1.1912020793146995e-02  9.8684745751223282e-02  9.4032082759967939e-02  5.6251461509090727e-03  8.2401635860758025e-03  5.2127807134549290e-03  2.2200100993034675e-03  1.3497084317508328e-02  1.2772900235464636e-02  1.2561918729838306e-02  7.8807825170044754e-02  1.7008711377479474e-02  1.7087536337115898e-02  2.0603076340148442e-02  1.1715537319405223e-02  2.1479886922162253e-02  2.1349114356818692e-02  2.1900062106974677e-02  7.7224955954631356e-03  8.4603601281057900e-03  5.5769062102368162e-03  5.3153160096070830e-03  1.0491477281488663e-01  1.1429966541611540e-01  9.5027841494172201e-03  1.2171025101462235e-01  1.1072094909905558e-01  8.8739835745162352e-03  2.5349962508675595e-02  2.4880178303298976e-02  2.5002093969312959e-02  1.9788089702499352e-02  2.5304582180864819e-02  1.5423131192457945e-02  8.3818276227792837e-02  6.4893766464257270e-03  1.8618718006917306e-02  2.3594496654772496e-02  8.4404751781190085e-02  4.1149566879679312e-03  1.0250695328068040e-02  2.0015477273138332e-02  1.2050080390168218e-01  1.1072202476055079e-01  1.2162182954955482e-02  2.4391544903674997e-02  1.7147511436417691e-02  1.2037933020137370e-02  1.6524146499419603e-02  1.1244975595109151e-01  9.0520753631222126e-03  9.9686653541287321e-02  1.3390064376919463e-02  7.1907810046065113e-02  1.3682344411821948e-03  8.0992048516269569e-03  1.0235633406638876e-02  1.1326917914887145e-01  1.7605269374837772e-02  1.4801541020950571e-02  1.4661330026841521e-02  1.4182366959256301e-02  1.1207511422493951e-01  1.7933962598901006e-02  2.4622548352747266e-02  4.593