<?xml version="1.0"?>
<VTKFile type="UnstructuredGrid"  version="0.1"  >
<UnstructuredGrid>
<Piece  NumberOfPoints="1404" NumberOfCells="2604">
<Points>
<DataArray  type="Float64"  NumberOfComponents="3"  format="ascii">0 0.41 0  0 0 0  2.2 0 0  2.2 0.41 0  0.2353553390593274 0.2353553390593274 0  0.25 0.2 0  0.2353553390593274 0.1646446609406726 0  0.2 0.15 0  0.1646446609406726 0.1646446609406726 0  0.15 0.2 0  0.1646446609406726 0.2353553390593274 0  0.2 0.25 0  0.6923879532511287 0.188268343236509 0  0.7 0.15 0  0.6923879532511287 0.1117316567634909 0  0.6707106781186547 0.07928932188134523 0  0.6382683432365089 0.05761204674887133 0  0.6 0.04999999999999999 0  0.5617316567634909 0.05761204674887134 0  0.5292893218813453 0.07928932188134524 0  0.5076120467488713 0.111731656763491 0  0.5 0.15 0  0.5076120467488713 0.188268343236509 0  0.5292893218813453 0.2207106781186547 0  0.561731656763491 0.2423879532511287 0  0.6 0.25 0  0.6382683432365089 0.2423879532511287 0  0.6707106781186547 0.2207106781186547 0  1.1 0 0  0 0.205 0  1.1 0.41 0  0.55 0 0  0.55 0.41 0  0.275 0 0  0.8250000000000001 0 0  0.275 0.41 0  0.8250000000000001 0.41 0  0.6875 0 0  0.61875 0 0  1.65 0.41 0  1.65 0 0  1.375 0 0  1.375 0.41 0  1.925 0 0  1.925 0.41 0  1.5125 0.205 0  1.7875 0.205 0  0.9625000000000001 0.205 0  1.2375 0.205 0  2.2 0.205 0  1.99375 0.2152743902439024 0  0.4125 0.41 0  2.0625 0 0  2.0625 0.41 0  2.2 0.3075 0  1.7875 0.41 0  1.375 0.1486128048780488 0  1.5125 0 0  1.7875 0 0  1.5125 0.41 0  0.9625000000000001 0.41 0  0.4125 0 0  0.1375 0 0  0.1375 0.41 0  0.6875 0.41 0  0.9625000000000001 0 0  1.2375 0 0  1.1 0.1486128048780488 0  1.2375 0.41 0  1.65 0.1486128048780487 0  0.823495464168302 0.2603780552348366 0  0.3738707794507017 0.2720196349488618 0  0.3662291281331582 0.1311456406657909 0  1.676715909090909 0.2793064024390244 0  1.126715909090909 0.2793064024390244 0  1.348284090909091 0.2793064024390244 0  0.8287581077665108 0.1302150898054257 0  1.894702181800738 0.1282910975492754 0  2.092797818199262 0.1282910975492754 0  1.85625 0.3075 0  0 0.3075 0  0 0.1025 0  2.099172119769978 0.25625 0  0.4752414543992246 0.3180372603390748 0  1.99375 0.08395950269330846 0  1.459960956013612 0.3075 0  1.569025960719943 0.2986889805672169 0  1.03125 0.3278689922742084 0  1.959375 0.3126371951219512 0  1.749222215368287 0.1025 0  1.275777784631713 0.1025 0  0.9228016959331474 0.3075 0  1.000777784631713 0.1025 0  2.2 0.1025 0  1.225938124459196 0.3075 0  1.550777784631713 0.1025 0  1.44375 0.07430640243902442 0  1.16875 0.07430640243902439 0  0.7562500000000001 0.3358727844323386 0  0.89375 0 0  1.899250267340833 0.2229966846119207 0  0.61875 0.41 0  1.766482954545455 0.2934032012195123 0  1.046078563095834 0.2389031808701145 0  1.421109702350723 0.2261157654379721 0  0.07567171807980319 0.25625 0  0.2511897295290552 0.3235829392832554 0  0.07655002503762308 0.1488653460959645 0  0.1377245246847496 0.3206030474919778 0  0.6694099692696568 0.3242771941727899 0  0.9168971191497528 0.1295727156104653 0  0.7562500000000001 0 0  2.118919042110979 0.3422084711244843 0  2.13125 0 0  0.06875000000000001 0 0  1.30625 0.41 0  1.597888256393107 0.2173787389261347 0  0.34375 0.41 0  0.2493272016354703 0.08091360081773515 0  0.5588896233436766 0.3264056208677571 0  1.829299675393195 0.07400700849299596 0  0.1334079128307869 0.08523463035786674 0  1.71875 0.41 0  0.06875000000000001 0.41 0  1.16875 0.41 0  2.038220665644273 0.332420740103091 0  0.8810647413215221 0.2027360103977071 0  0.34375 0 0  0.7453891198966415 0.2471459041008237 0  0.42112093004955 0.1988123139090554 0  0.8314023090855964 0.3351170841770613 0  0.89375 0.41 0  0.7906250000000001 0.06615386481594063 0  1.452769549894695 0.1548122580621249 0  1.369219062229598 0.07430640243902442 0  1.30625 0 0  1.07420695807087 0.07430640243902439 0  1.720943423819132 0.1714577452753128 0  1.157188124459196 0.205 0  1.304056576180868 0.1714577452753128 0  1.67579304192913 0.07430640243902437 0  1.209670467133757 0.136210026696477 0  0.4312800784902823 0.08036147352247747 0  0.8723959680194693 0.07066860609690805 0  1.025335513626278 0.1700681449722324 0  0.7945632284247136 0.1940204203251442 0  0.378125 0.3452261501101892 0  0.3307109909790086 0.2037165635083759 0  0.3009701032039409 0.2702970083403109 0  0.20625 0.41 0  1.58125 0 0  0.4812500000000001 0 0  0.9838963872396855 0.2722244191167347 0  0.06772484939107212 0.3260067317374387 0  0.20625 0 0  1.58125 0.41 0  1.631724228912893 0.3381867502687533 0  1.825608881788174 0.14499488549201 0  1.85625 0 0  1.44375 0 0  1.44375 0.41 0  1.85625 0.41 0  2.13125 0.41 0  0.7562500000000001 0.41 0  0.4812500000000001 0.41 0  1.16875 0 0  1.03125 0.41 0  1.03125 0 0  1.71875 0 0  1.99375 0 0  1.99375 0.41 0  0.9408708167433545 0.0651989315768642 0  1.340625 0.3489494290853124 0  1.134375 0.3489494290853123 0  1.700180620188976 0.3438659752031281 0  0.29668452290037 0.1318471691375986 0  0.3175441051360096 0.06496934809856265 0  0.06509151636162461 0.08140814015999148 0  2.135782184673599 0.07126652247502523 0  1.668441847249787 0.2129203728327609 0  1.295782514339747 0.2378437748815763 0  1.409375 0.3520314716057996 0  2.129248544730567 0.1906135162504124 0  2.060771381434487 0.1989445750470348 0  2.013252586573865 0.1496169464686054 0  1.942766402200229 0.1734448904596831 0  1.895522487186454 0.06076163953489683 0  2.069553871656643 0.06605731020975725 0  0.4670911801404742 0.2498408582391372 0  0.7622743084658112 0.1264100838268133 0  1.274680914880868 0.3520219391081363 0  0.3148669572599245 0.3331753056385887 0  1.614713220494657 0.09473434380863296 0  1.72990325744076 0.2380068107952482 0  1.356580098625191 0.2120393231351682 0  2.034370752044885 0.2668681600792073 0  1.51768709249349 0.3426260931494756 0  1.561883724969884 0.1650446847858835 0  1.197344062229598 0.2523725417393646 0  1.804085235518364 0.3468178408964637 0  1.817887819205233 0.2589243285818559 0  1.905897727272727 0.3485060975609756 0  0.7296439733931823 0.06337466644369745 0  0.4250935971865949 0.1394919578475796 0  0.3773030136511669 0.05130372097998036 0  1.192836486056382 0.3562350748565544 0  1.1029124365364 0.226143510831178 0  1.28257088594801 0.2944411014911587 0  0.1905185804731426 0.06029880676029167 0  1.474860187679412 0.2504218616229368 0  1.406767003493824 0.2829282258560709 0  0.5209826960981064 0.2830664557824064 0  0.5131119502780163 0.3617405848213254 0  0.1948220106098172 0.3081993407644811 0  1.845656689180403 0.1998310418452388 0  2.144958525570388 0.2909790873294231 0  2.2 0.15375 0  0.8833025251326762 0.2625402923007629 0  0.171875 0.3653875762360952 0  1.57794966442982 0.3540357145964566 0  0.446875 0.366068291212731 0  0.4272051715206439 0.2891929346190664 0  1.508991196088596 0.1421783375065625 0  1.50436820029908 0.06143401634903343 0  1.223857000523521 0.08235548624535324 0  0.6137904613287555 0.3066826366281556 0  1.153316824384777 0.1289850171317838 0  0.9751573703656133 0.327632618473408 0  2.148922302309752 0.1258841779285271 0  0.9281250000000001 0.3643758685795699 0  1.621993280276081 0.2841214267927899 0  1.550118654119087 0.2461998729100966 0  1.327182649291491 0.1216967252533594 0  0.9939955742738924 0.04663549843168518 0  1.753125 0.04556020050186112 0  1.271875 0.04556020050186116 0  0.9734326767716519 0.1506854560854393 0  0.103125 0.3675775577080512 0  1.94956388244759 0.1180512551534177 0  1.949997712993411 0.04965831614304109 0  0.717433898748555 0.295596016333797 0  1.771961817615021 0.1530278789497521 0  1.909246823951428 0.2812757146784527 0  0 0.35875 0  1.050632804931928 0.1226269704412814 0  0.05695108326502596 0.2024009637347154 0  1.948575539857022 0.2445328248721197 0  1.697271520964565 0.1233917627620729 0  1.065625 0.3689344961371042 0  1.085849084308977 0.3170853572226867 0  0.1015495998772944 0.04226029099983852 0  1.577403511714593 0.05463601888079143 0  1.751571320346033 0.3651102912045228 0  2.2 0.35875 0  0.7441773632462837 0.1786786606458751 0  0 0.05125 0  1.466879772203159 0.3611261772912453 0  0.6282230348858767 0.3577675483994025 0  1.990280163552011 0.3564754268533217 0  1.17471064520912 0.2990917256188288 0  0 0.25625 0  2.2 0.25625 0  2.2 0.05125 0  0 0.15375 0  1.853978576207987 0.35875 0  1.515638456102889 0.2882700110184686 0  2.150453692751374 0.2387066338105111 0  1.323782677156475 0.04897634338873398 0  1.409375 0.03715320121951221 0  1.406484531114799 0.1087852750766809 0  1.134375 0.03715320121951219 0  0.721875 0.3729363922161693 0  0.7941695928236929 0.3696489254637395 0  0.7934827162619036 0.3013409431456604 0  1.627401732573545 0.04552157221025036 0  0.9352049974617431 0.2507047965699472 0  0.8763260682738339 0.3611103317460093 0  2.045405893604797 0.1105340662939892 0  1.255408269734577 0.1577307500159216 0  2.028125 0.03707597992059326 0  1.003030137506755 0.3689344961371042 0  1.248258025468107 0.2565907092181813 0  1.203125 0.03661323374043041 0  0.4800125512335631 0.0549472816999725 0  2.072662025974815 0.2975086504196739 0  0.240625 0.3729825336867542 0  1.113252391110535 0.10238286244357 0  1.071052763974265 0.1885202618768825 0  0.8738809401657862 0.3106483608284829 0  0.6786819423003397 0.2677558482644021 0  1.887722846421017 0.1760882698830035 0  1.472640588990488 0.1118278026240017 0  0.5843750000000001 0.41 0  1.865937103925594 0.2604137786483804 0  1.463913572748262 0.2030442564990043 0  1.376426316059077 0.3186741374914345 0  0.1038643885363755 0.2162701735320032 0  0.1769473813227781 0.1070849728467114 0  0.458787839809176 0.171541653775316 0  0.240625 0 0  0.04179569703428024 0.2877217852556549 0  0.1258346557601885 0.2699740073054968 0  1.722140693354707 0.282908100935778 0  0.41206179117512 0.2448172567039922 0  0.3702471778075604 0.2265217604228704 0  0.3714881805374215 0.1786967818665642 0  1.77397096061971 0.2481483237422926 0  2.105123889160691 0.03743885948498647 0  1.001138337938679 0.229719337663998 0  1.051242910646791 0.2854826559431138 0  1.395420985247586 0.18
[...]
<PointData  Scalars="f_43"> 
<DataArray  type="Float64"  Name="f_43"  format="ascii">1.0657412644511423e-01  2.0320894496174063e-01  8.4068311014071545e-11  2.9961795129610518e-10  7.8614211806100759e-02  8.1902475262148777e-02  6.8488737149780418e-02  6.4632111230440714e-02  1.3538490304877260e-01  1.3730253004669285e-01  8.8148988914986418e-02  6.9539026215783922e-02  -6.6625587407372431e-03  -6.5477706441704692e-03  -1.0230081792564577e-02  -1.5557195221954650e-02  3.1884278346563280e-02  -1.7140100021697531e-03  -1.3492349447187678e-02  8.6413518999561775e-02  1.5370385356084176e-01  1.5081827375226814e-01  7.3925995369566760e-02  1.1236681255372229e-02  -2.3946976354641349e-02  -3.6872736585547246e-02  -2.6651174397738470e-02  -1.2507719488008148e-02  1.5654661736801433e-02  1.1687217424350035e-01  6.2959612661077176e-03  5.8065994502814480e-02  4.7843976704130049e-02  1.0052920055766625e-01  -2.1072433615883868e-03  9.1564145791768831e-02  2.1594305502506076e-03  -3.9224624142808768e-03  4.8912342859772223e-03  7.2718465743371284e-03  7.3005219029142988e-03  1.1535744802120294e-02  1.0334952442565557e-02  3.6413291313156259e-03  3.6469708138209835e-03  9.1049656082407542e-03  5.4643189528173373e-03  -1.7469664440362593e-03  1.2588252486515515e-02  1.4595488795629392e-10  2.7323772238790943e-03  7.9784360660374670e-02  1.8188883338862386e-03  1.8214184870531975e-03  2.9380002914412396e-10  5.4641746151181348e-03  1.1206395937415986e-02  9.2418210836985905e-03  5.4650025271689735e-03  8.9802315823118775e-03  2.6310641543349600e-03  1.0531395697039631e-01  1.1281484970673664e-01  1.0530569404657347e-01  8.6814830570767932e-03  5.7249479312542137e-03  1.4563739218943913e-02  1.4795979291855428e-02  1.0374207082802156e-02  7.2991430894151603e-03  -3.6069796887080990e-03  8.9882425153036571e-02  9.8182557398918360e-02  6.9254765273182722e-03  9.3183172079802975e-03  1.0771762260562400e-02  -3.3156842565409883e-03  4.0413683732141385e-03  1.4199795216294385e-03  4.5528582648267845e-03  1.0741535101579110e-01  1.2738150071740043e-01  1.3337146209615619e-03  7.1648148602627221e-02  2.7304850381607579e-03  9.6093835221769362e-03  8.3108709745616308e-03  3.8639504666915779e-03  3.1885016513068369e-03  5.9731723597451596e-03  1.3372101443529396e-02  2.0953795400812662e-03  7.2989200046775574e-03  1.8230972679339486e-10  1.0706248116987836e-02  8.6682061659631160e-03  1.0291360411056981e-02  1.5771979027221095e-02  1.8162366386807133e-03  3.1365669231340858e-04  3.9837994934382543e-03  2.3991293977405723e-02  5.7408915054192374e-03  8.6321340188669233e-03  1.0231821235670076e-02  1.1202920471531144e-01  8.8749305461838401e-02  1.2737427983355018e-01  1.0369087076904612e-01  9.4972131836995426e-04  -3.0620236150450805e-03  -3.9541672520162097e-03  1.0737791509402193e-03  9.0404273108442474e-04  1.2681727104367974e-01  1.0647095703127770e-02  7.9701022031180343e-03  8.5924663466772480e-02  9.4171748462239468e-02  3.3354664559392982e-02  4.9103860662034525e-03  1.1966106119228725e-01  6.3738854665939711e-03  1.0692046300571011e-01  8.9963531022420259e-03  2.1451614065661961e-03  -7.3247353327060213e-03  1.0208941679875121e-01  -3.6835894562392097e-03  9.4790110253563972e-02  2.2488051460267133e-03  2.3719879077645722e-03  -1.8515546059997929e-03  1.0015843072040313e-02  1.1596958272127334e-02  1.2962999254877646e-02  1.4379595474968010e-02  6.3482513182386690e-03  1.3414289057082902e-02  1.2144506492939676e-02  6.9566099086052283e-03  1.4358497229870105e-02  1.1512943362494901e-01  -1.1575501134433233e-03  8.2465300559152448e-03  -3.1595311711227593e-03  8.4462117505317180e-02  8.6956396727358165e-02  8.5619599901260030e-02  9.9253122938135513e-02  8.2524736776796274e-03  1.0502621348784483e-01  3.2939750142765832e-03  1.0694485495782537e-01  1.0439643244846530e-01  8.1424036426735735e-03  7.5063062362996811e-03  4.9588040997994376e-03  4.5496180422984773e-03  1.0319375805828182e-02  9.7383631345192064e-03  4.5536610210156914e-03  9.0683868549187017e-04  3.1131054178055247e-03  6.8213644009091690e-02  1.5895218780193520e-02  3.6527578673706536e-03  1.2141916847591836e-02  6.3766399939935931e-03  2.7280436571585488e-03  2.7332987176541916e-03  2.4687480809852916e-03  1.0576367539313772e-02  7.7338382139138977e-03  6.6160886310360047e-03  8.6013628790210850e-02  1.0076694953516216e-01  1.2734200490670336e-01  8.4978706935489950e-04  7.0415206487221610e-03  1.1517542509248418e-02  1.0071789926557899e-02  9.3533635460384893e-04  1.8421409998584596e-03  2.4713668662136351e-03  3.4044741542980541e-03  4.0291598223577453e-03  1.7265881569348883e-03  7.8880118894246384e-02  -4.9937725718567265e-03  1.0664452404075037e-02  8.7841534863640006e-02  7.7840894073319409e-03  6.2266147224335029e-03  1.1087267634195288e-02  2.1947691526279529e-03  8.9226898908782264e-03  8.4803548372781694e-03  1.1648000366238901e-02  5.2457904708066994e-03  5.0597670283505205e-03  3.8984828062411676e-03  -3.7684707067551083e-03  1.1711811591972231e-01  1.0535921713347113e-01  9.6721290905086334e-03  1.1985612173035032e-02  1.1016151012425869e-02  1.0521902605354558e-01  9.5206278135034419e-03  1.0219233815319030e-02  4.3446716642432194e-02  5.8299414499974875e-02  9.1077647893212599e-02  4.6922361815363899e-03  7.2740634633789716e-04  -2.0704856220596436e-10  -3.9907885440066682e-03  1.0169258064292318e-01  8.1856552707123362e-03  7.4846142718794112e-02  8.5775508466229361e-02  9.2294670681210018e-03  9.3591974134577156e-03  1.4696345384700547e-02  -1.9071108743719475e-03  1.5414250297525599e-02  3.3104461254623656e-03  6.7648592148416577e-04  3.3298993113331887e-03  7.6367349027665014e-03  8.5777989618954723e-03  1.2183803943088892e-02  8.0354349318403923e-03  5.9213308879662325e-03  1.3734561529907107e-02  9.3239199100889265e-04  1.0602058610185913e-01  3.3148816365258329e-03  3.3084416071463836e-03  -4.2261359613044898e-03  5.6715090485084932e-03  3.8509662851314475e-03  1.0641972089928994e-01  1.2295509543676100e-02  1.1954336175736226e-01  3.3295247856180996e-03  6.6640976909008165e-03  4.6823718261896864e-03  5.9934799088257606e-03  1.2154379853574286e-01  8.3075281557637073e-03  5.9397244964503630e-03  2.9961795129610518e-10  -4.6455117510612555e-03  1.3611552754579556e-01  9.4924269039948495e-03  1.7204151136958289e-02  2.7797007629347015e-03  1.0023508067046527e-02  1.1089920674417322e-01  1.4595488795629392e-10  8.4068311014071545e-11  1.2260333496725689e-01  4.5846077709645189e-03  8.9778718158866552e-03  6.5598595687158142e-04  1.2562021668784782e-02  1.0908848685483176e-02  1.0845889418559740e-02  1.5992724222754696e-02  5.5636524794272554e-03  3.3100744047603989e-03  -8.8534403564825435e-04  7.6152459186836019e-03  -2.1832082001411474e-03  3.3462599369873326e-03  2.0465117418326912e-03  1.3137499818109435e-02  2.2774767247445023e-03  3.2508563719581538e-03  1.1544056156061067e-02  1.5284962440445395e-02  1.0754719430482247e-01  1.6879181305106228e-03  9.4421665327796972e-02  1.5653128012573486e-02  1.2475643396502098e-02  1.0143041992514775e-03  -1.2354939537140315e-02  4.1345938457237868e-03  9.7959186479679855e-03  3.5446282028138126e-02  4.4242494917154079e-03  9.7511583550356253e-03  1.0405148611766363e-02  1.2249680681422255e-01  1.0595874075010776e-01  1.1571718040497996e-01  1.0152456749786851e-01  1.0868718771532894e-01  1.0495880349624162e-01  6.3269925266203524e-03  8.9875375100221574e-02  8.9742551081314265e-02  9.0907112106553653e-02  5.6435217580038501e-03  1.2555036577948521e-03  4.3482746625986566e-03  6.0659434635168498e-03  1.0707131182686737e-02  2.2797591529033988e-03  8.1196725527399205e-02  7.9325666903238296e-03  1.2624423865006970e-01  1.3099906553655949e-01  -5.0314494755866338e-03  -4.8129885439244721e-03  9.1951139961414644e-02  5.1383839267202993e-03  2.7753196029133469e-03  8.7583489173032825e-02  8.3144087645329545e-02  8.4102390410210975e-02  4.9522205008540991e-04  1.3678752891117718e-03  1.6502358665111605e-03  -4.9908362396769929e-03  1.7532029888582322e-03  7.7144825732907507e-03  1.0500184912223185e-02  5.3859913748819151e-03  3.9372806514099960e-02  1.3810260206771868e-01  1.0653093367107916e-01  2.5699861483539986e-03  1.0599873296023335e-02  -3.6425979874145959e-03  8.8533815528758206e-02  9.0170769911137302e-02  1.3663006810642950e-02  9.7631552279187281e-03  7.5367374936830753e-03  8.5713465998101049e-03  1.2218963637219932e-02  6.8472547898537402e-03  6.5195638645898528e-03  5.3720280643465622e-04  5.3788263887508158e-04  1.2946540797091621e-01  1.3225659989138552e-01  1.0660389928662857e-01  1.1267332878009390e-01  -1.1517767322740012e-03  -1.3742244805431863e-03  7.4784749027627722e-03  5.3324177677830749e-03  4.3954128864226909e-03  8.7900710566357274e-02  8.0394124820125118e-02  1.0062948003873680e-01  8.7430215363608205e-03  3.3597128476320699e-03  -5.3557497483196562e-03  1.3647918694471811e-01  -1.9294215596384015e-03  5.0120920601972874e-03  6.1435671278529556e-03  7.0902227541720739e-03  1.0856837067652164e-01  1.8975613541495097e-03  9.6063516698202664e-02  8.6247641065882133e-02  8.5632060523034553e-03  1.0324951686575264e-02  8.7986368116381677e-02  1.4019828258950487e-03  9.9241365048002086e-03  -6.2001817169975776e-03  1.0223720919186868e-01  8.0568517068440228e-03  -1.6718212790397336e-03  1.0676691483404784e-01  1.0093405797297633e-01  7.7685726140802838e-02  2.6400385766176286e-03  7.0919580528924526e-04  1.1699839788203121e-02  1.4728058755117814e-02  5.1779051974416260e-04  1.2689300650703927e-01  1.0781935968204648e-02  7.9906070140073601e-02  9.4873045584753929e-02  -2.7990763571429473e-03  -5.0217761296629413e-03  2.7899459924324087e-03  5.3528938543467117e-02  4.0993770163765412e-03  9.5406312936057502e-02  4.5355770214288950e-03  4.0942038516703543e-03  3.5926637044316444e-03  8.5456820788388982e-02  9.2377374848149861e-03  9.0862270674349176e-03  6.4595577303164847e-03  1.1609622606458123e-02  1.5254640799104524e-02  7.0948224471312936e-03  7.2637075380717949e-03  8.4517713635199429e-02  1.1413585090710369e-01  2.1605837191001225e-03  1.0601925984964558e-02  8.7060677395326566e-02  2.0103915421899169e-03  1.2321904865116173e-01  5.5847833525028553e-03  -3.0060313519501025e-03  -4.0034127026673371e-03  2.3337056450908087e-02  9.4586187433101047e-03  -1.2541447639335313e-02  2.2148270579513893e-03  9.8457412394022184e-03  9.0504659790270909e-03  1.0682076183733742e-01  -1.0396442023544524e-03  3.1445667155813781e-03  3.1300005693824379e-03  -3.7118826010269154e-03  8.9919156693006770e-03  1.4415501341044466e-02  -2.0181043103822478e-03  -2.8420485649630041e-03  -2.7855930735459322e-03  5.9958345376236819e-03  1.2147651477469571e-02  6.1948908814681266e-03  1.2714885647159101e-02  1.1472602154953248e-02  1.1822394994252024e-02  6.8144221703028548e-03  1.1731034614666212e-02  2.9946003485943219e-03  8.1849661038084068e-02  1.3846885737213172e-02  1.5163479887265425e-02  7.8858921330109914e-03  7.0416363696345465e-03  -2.5823663252548166e-03  -7.9741301271081760e-04  7.5614124499712825e-03  8.0206280799569873e-03  8.7728512420020745e-03  8.0321680396431158e-02  8.3127426300607724e-02  3.8345384763337569e-03  5.0076501247364623e-03  8.6584788197816412e-02  1.8150212203408859e-03  2.2892035764019610e-03  1.2712505321786530e-02  1.2090770097045892e-03  4.0317136904798314e-03  -2.9249381969293285e-03  1.0977053433954788e-03  4.8623319181064601e-04  5.6701423443148583e-03  8.7869386650935664e-03  9.1910909399490967e-03  8.0340139049416576e-03  2.6978377988854212e-03  -6.1396203150839085e-04  1.3143966211744157e-01  1.0807717571328609e-01  1.0892760693668509e-02  6.0293203992318363e-03  1.0292431232189395e-01  -7.3490754195189153e-03  4.6528727343314504e-04  1.0582179733669690e-03  3.2178461487757212e-03  1.2104073600701663e-03  1.2649168622219492e-02  4.5233243373166828e-03  5.2693968347903549e-03  -3.9507361875281274e-03  3.1605014508916170e-03  -8.1204736734708967e-03  2.2519996013365188e-02  5.2552607627261794e-03  1.5741472553711855e-03  5.7814860993384738e-03  8.6530574940114294e-03  7.7922233427319835e-03  1.0637447590150116e-02  1.0546862713243768e-02  1.0340686259098534e-02  8.5705762558956535e-03  9.3364175379221162e-02  1.0323955131756331e-01  1.0226129041192446e-02  1.0347519920245710e-03  9.8668496040952777e-03  4.5792297587392075e-03  1.4083321917309400e-02  1.4524305147726993e-02  6.8184013293251815e-04  1.0102557146450111e-02  6.8195992508378314e-03  2.7375139777393305e-03  2.2637407686519886e-03  1.2235915503299026e-02  3.1760938276533339e-03  1.0606241777196573e-02  6.9156193115401925e-03  9.8425690636041951e-02  1.0452761613393555e-01  1.5809818570460325e-02  1.2216431022424900e-02  4.5761237733166427e-04  1.3556999468198416e-03  4.9869937088299725e-03  1.6165614414912273e-02  1.0906197321518275e-02  9.3688198893877184e-03  5.9202818580332802e-03  4.8131845931184067e-03  5.9199594778600231e-03  2.5002581943552259e-03  1.0062074215135859e-02  4.5737631343481083e-04  1.0617402829196845e-01  7.5121289339758215e-02  1.0374528370516316e-01  9.5230378934561280e-02  1.1673712878413516e-01  1.0664351014728146e-01  1.0290268552826529e-01  1.0676866293926925e-01  2.2268424384978480e-03  2.3541832639536789e-03  5.9285225171061308e-02  1.4744077210978179e-02  2.5885942214819995e-03  1.5342980285023441e-02  2.8858742729234075e-03  7.7766755460216396e-03  3.1843372254951575e-03  1.3753452468344319e-02  9.0588301939836698e-03  2.2756613897873816e-03  3.1855666116340636e-03  3.7995050708715065e-03  6.3877340353340854e-03  8.9188864181603156e-02  6.9918744080516321e-02  4.6299144423944262e-02  1.5807115869734031e-02  2.5058038604304331e-03  1.2402685003579458e-01  1.0292571027632530e-02  1.4617563103007308e-02  2.0107756770347007e-03  2.8922736013574396e-02  8.8509085245039254e-02  1.1111660252988381e-02  1.1066594403588483e-02  8.0317167110273216e-02  9.2274511539802602e-03  8.6882660690088421e-03  9.2147147661663480e-03  3.8671298755424029e-03  9.7795671453107646e-03  9.8947790280091725e-03  6.6029167819252922e-03  4.0757473480788698e-03  1.0877516648332711e-02  6.5368253822324545e-03  4.9155470861781325e-03  7.0403665070456981e-03  1.1659236825670065e-02  3.6300313833143257e-03  9.1742922872239032e-03  8.0148376418193949e-03  1.8332969055705800e-03  1.4929109988788807e-03  9.9645364921340754e-02  6.7481108245080551e-02  -6.7622821992618784e-03  -1.9033168694712567e-03  1.1202232351035108e-02  1.0602059738401578e-02  3.6497090926840411e-03  3.7808894744126701e-03  1.5093886212774910e-03  1.4640909036000588e-02  2.1242456351021370e-03  5.2383500677014080e-03  1.0193820532659639e-01  4.8493793812924794e-03  6.6514874146413770e-03  4.7318795769237653e-03  3.1612933988143747e-03  1.0576919640569482e-01  4.1915549646360086e-04  -2.8025309460725386e-03  8.3920867902698461e-03  8.3676926848825481e-02  -2.4150862401718997e-02  8.2450777274901462e-03  7.4057855560826650e-03  3.8719105015245694e-03  1.2642374896026543e-01  8.3537183108471375e-03  -3.0958028032448313e-03  7.9598292615954188e-03  -5.4005651649562921e-03  1.0563800103149955e-01  1.1207491574970041e-01  8.8586555824486362e-03  1.2037989594243036e-02  1.2825728288114818e-01  1.0673199529316152e-01  4.3275617280059487e-03  -2.2274204887995259e-03  3.4322518755963830e-03  1.3311296580064455e-02  3.7699859028734409e-03  8.4966697640124576e-03  5.1512469023679182e-03  1.0111650850950693e-02  5.9990211032996598e-03  1.1159135554447321e-01  9.8727262330212145e-02  1.5828258407392090e-02  1.1968672381329704e-02  1.1181496700254045e-02  1.2368005092712013e-02  7.1229635805463692e-03  9.8058711169490345e-03  1.3372310026087781e-02  5.3842548058245553e-03  4.8159141874326312e-03  1.4119357051551665e-03  9.4659501815082103e-03  2.9900892935734429e-03  1.5657118133753076e-01  1.0648200954552516e-01  8.7932155212655377e-03  3.9894329964169995e-03  -8.0556630305066053e-03  9.9795122267594447e-02  1.0805790900826158e-02  8.5497112151606859e-03  1.0834722636384578e-01  8.2901844018848148e-02  2.9081727690681274e-03  1.0857023086937385e-01  8.7300047741969922e-02  1.0511154740032263e-02  -1.0366884404609301e-02  1.6010573396820920e-02  5.0769842998357614e-02  1.3990702993581048e-02  4.7814596349142324e-03  -2.1101999271266455e-03  1.3250555876152467e-03  1.1928292829206474e-01  4.9344586383873448e-03  1.1969385160167488e-02  7.5782106209502072e-03  4.2578816981128234e-03  1.4595488795629392e-10  8.8762498714119384e-02  -3.9118595399219297e-04  -6.5007895558552992e-03  1.0413650537490250e-02  3.3074970246858861e-03  7.2978078176353586e-03  1.0852719300025723e-01  1.2304452356894731e-01  4.6891531972410616e-04  1.7994533327589666e-03  8.4244342552486876e-02  9.8247653725216377e-02  1.2050662567596997e-01  4.0275849559898791e-03  1.0617630646766555e-02  9.8488248690087668e-03  9.5010691705059245e-03  9.3165064780003151e-03  1.0396418910521602e-02  4.3693680218534221e-03  7.0645084448752241e-03  1.1237555653991919e-01  1.0523464563045447e-02  1.0164600551275712e-02  -4.8121224887450968e-03  4.6659721984842487e-02  8.8859299291791455e-02  8.0694003042470097e-02  4.2929212801698265e-03  1.1080445045295173e-01  1.3024882709060281e-02  5.4128525101377186e-03  -5.9690658406052503e-03  1.0698283229884186e-02  1.0479015290233472e-02  1.2989780771392456e-02  1.8230972679339486e-10  1.3268695300327002e-01  8.6613088844425382e-02  1.1086400172309918e-02  1.1340910561127014e-02  -6.3941425756698410e-03  1.0605668541577769e-02  6.2294727292073575e-03  1.0164155724820836e-01  9.0781511404557910e-02  1.6699007596135799e-02  7.0945334845541894e-03  6.3913417144389320e-02  1.0109645252963395e-02  2.5480793755238568e-03  9.6256350504353872e-03  7.4082615818236311e-03  2.8988240868546913e-02  3.7274415986915544e-03  4.6691895689406678e-03  5.6928988802790971e-03  8.3845753875638827e-04  9.2370116795626388e-04  3.8454537543979392e-04  7.9476274736792168e-02  5.0402813725662507e-02  4.3412361836009687e-03  2.8203234024223325e-03  -7.3096663894707615e-03  3.0591398874235468e-03  1.3132455001813172e-02  6.1506705276976933e-03  5.6404623364324936e-03  1.1521113603836616e-01  8.0844569740370145e-03  1.4963260739887029e-02  1.5308237202544881e-02  1.0652031022379770e-01  1.1481810972101278e-02  8.1770236691624656e-02  -5.6923850565986289e-03  1.0202483236622208e-01  1.0239282441170564e-02  1.3339934025289287e-02  -3.7694752703321161e-03  8.8103311969827264e-02  -3.7571021752986159e-03  7.0561086148758067e-03  1.4595488795629392e-10  3.3947583280141617e-03  3.1804716033555108e-03  8.2165061500305368e-03  7.8193303876215228e-03  8.8999387215221604e-02  8.6262853413939633e-02  3.7016069170971349e-03  -8.2301370367976120e-04  3.4301599730568659e-03  1.4608419455979928e-03  8.8665741626193784e-03  8.3791494661341805e-03  8.2574980645471596e-03  7.3684808841391808e-02  1.0608777999128335e-02  -2.6019078424283351e-03  1.5307705956989126e-02  7.7225596256874848e-03  4.9278573961770546e-03  7.6473459339143693e-03  4.8971961437399890e-03  5.0842560210773748e-03  5.5730146390612720e-03  3.6667986036290050e-03  3.4996745403893638e-03  9.9039740909166549e-02  1.0881819379984554e-01  6.2574149380895169e-03  1.1590097793442827e-01  1.0477415741682808e-01  5.8422949825881936e-03  -1.6161291091519462e-03  4.6678417220560840e-03  5.1053935547892828e-03  9.4376705853141587e-03  -2.7054895658424490e-03  9.9429245050040999e-03  7.7121315620736985e-02  4.2712229115462550e-03  1.0863452038481323e-02  1.4078587606890292e-02  7.9857039997329793e-02  -1.9244368592243608e-03  6.7480690940165608e-03  1.4526751622272412e-02  1.1708072693879992e-01  1.0586724013873831e-01  7.9850342258106274e-03  -2.2888769303882443e-03  1.1659829237904734e-02  7.9543898957226966e-03  1.1343848725419582e-02  1.0641276910247084e-01  5.9601864749842023e-03  9.1339252574625204e-02  8.7711209796825784e-03  6.7999803214865387e-02  9.0093268655977562e-04  5.3315004453683579e-03  6.7373173507854342e-03  1.0636323061634893e-01  1.0705594227799965e-02  9.5511020097192017e-03  9.4911613411257211e-03  9.2085357337821829e-03  1.04482