<?xml version="1.0"?>
<VTKFile type="UnstructuredGrid"  version="0.1"  >
<UnstructuredGrid>
<Piece  NumberOfPoints="1404" NumberOfCells="2604">
<Points>
<DataArray  type="Float64"  NumberOfComponents="3"  format="ascii">0 0.41 0  0 0 0  2.2 0 0  2.2 0.41 0  0.2353553390593274 0.2353553390593274 0  0.25 0.2 0  0.2353553390593274 0.1646446609406726 0  0.2 0.15 0  0.1646446609406726 0.1646446609406726 0  0.15 0.2 0  0.1646446609406726 0.2353553390593274 0  0.2 0.25 0  0.6923879532511287 0.188268343236509 0  0.7 0.15 0  0.6923879532511287 0.1117316567634909 0  0.6707106781186547 0.07928932188134523 0  0.6382683432365089 0.05761204674887133 0  0.6 0.04999999999999999 0  0.5617316567634909 0.05761204674887134 0  0.5292893218813453 0.07928932188134524 0  0.5076120467488713 0.111731656763491 0  0.5 0.15 0  0.5076120467488713 0.188268343236509 0  0.5292893218813453 0.2207106781186547 0  0.561731656763491 0.2423879532511287 0  0.6 0.25 0  0.6382683432365089 0.2423879532511287 0  0.6707106781186547 0.2207106781186547 0  1.1 0 0  0 0.205 0  1.1 0.41 0  0.55 0 0  0.55 0.41 0  0.275 0 0  0.8250000000000001 0 0  0.275 0.41 0  0.8250000000000001 0.41 0  0.6875 0 0  0.61875 0 0  1.65 0.41 0  1.65 0 0  1.375 0 0  1.375 0.41 0  1.925 0 0  1.925 0.41 0  1.5125 0.205 0  1.7875 0.205 0  0.9625000000000001 0.205 0  1.2375 0.205 0  2.2 0.205 0  1.99375 0.2152743902439024 0  0.4125 0.41 0  2.0625 0 0  2.0625 0.41 0  2.2 0.3075 0  1.7875 0.41 0  1.375 0.1486128048780488 0  1.5125 0 0  1.7875 0 0  1.5125 0.41 0  0.9625000000000001 0.41 0  0.4125 0 0  0.1375 0 0  0.1375 0.41 0  0.6875 0.41 0  0.9625000000000001 0 0  1.2375 0 0  1.1 0.1486128048780488 0  1.2375 0.41 0  1.65 0.1486128048780487 0  0.823495464168302 0.2603780552348366 0  0.3738707794507017 0.2720196349488618 0  0.3662291281331582 0.1311456406657909 0  1.676715909090909 0.2793064024390244 0  1.126715909090909 0.2793064024390244 0  1.348284090909091 0.2793064024390244 0  0.8287581077665108 0.1302150898054257 0  1.894702181800738 0.1282910975492754 0  2.092797818199262 0.1282910975492754 0  1.85625 0.3075 0  0 0.3075 0  0 0.1025 0  2.099172119769978 0.25625 0  0.4752414543992246 0.3180372603390748 0  1.99375 0.08395950269330846 0  1.459960956013612 0.3075 0  1.569025960719943 0.2986889805672169 0  1.03125 0.3278689922742084 0  1.959375 0.3126371951219512 0  1.749222215368287 0.1025 0  1.275777784631713 0.1025 0  0.9228016959331474 0.3075 0  1.000777784631713 0.1025 0  2.2 0.1025 0  1.225938124459196 0.3075 0  1.550777784631713 0.1025 0  1.44375 0.07430640243902442 0  1.16875 0.07430640243902439 0  0.7562500000000001 0.3358727844323386 0  0.89375 0 0  1.899250267340833 0.2229966846119207 0  0.61875 0.41 0  1.766482954545455 0.2934032012195123 0  1.046078563095834 0.2389031808701145 0  1.421109702350723 0.2261157654379721 0  0.07567171807980319 0.25625 0  0.2511897295290552 0.3235829392832554 0  0.07655002503762308 0.1488653460959645 0  0.1377245246847496 0.3206030474919778 0  0.6694099692696568 0.3242771941727899 0  0.9168971191497528 0.1295727156104653 0  0.7562500000000001 0 0  2.118919042110979 0.3422084711244843 0  2.13125 0 0  0.06875000000000001 0 0  1.30625 0.41 0  1.597888256393107 0.2173787389261347 0  0.34375 0.41 0  0.2493272016354703 0.08091360081773515 0  0.5588896233436766 0.3264056208677571 0  1.829299675393195 0.07400700849299596 0  0.1334079128307869 0.08523463035786674 0  1.71875 0.41 0  0.06875000000000001 0.41 0  1.16875 0.41 0  2.038220665644273 0.332420740103091 0  0.8810647413215221 0.2027360103977071 0  0.34375 0 0  0.7453891198966415 0.2471459041008237 0  0.42112093004955 0.1988123139090554 0  0.8314023090855964 0.3351170841770613 0  0.89375 0.41 0  0.7906250000000001 0.06615386481594063 0  1.452769549894695 0.1548122580621249 0  1.369219062229598 0.07430640243902442 0  1.30625 0 0  1.07420695807087 0.07430640243902439 0  1.720943423819132 0.1714577452753128 0  1.157188124459196 0.205 0  1.304056576180868 0.1714577452753128 0  1.67579304192913 0.07430640243902437 0  1.209670467133757 0.136210026696477 0  0.4312800784902823 0.08036147352247747 0  0.8723959680194693 0.07066860609690805 0  1.025335513626278 0.1700681449722324 0  0.7945632284247136 0.1940204203251442 0  0.378125 0.3452261501101892 0  0.3307109909790086 0.2037165635083759 0  0.3009701032039409 0.2702970083403109 0  0.20625 0.41 0  1.58125 0 0  0.4812500000000001 0 0  0.9838963872396855 0.2722244191167347 0  0.06772484939107212 0.3260067317374387 0  0.20625 0 0  1.58125 0.41 0  1.631724228912893 0.3381867502687533 0  1.825608881788174 0.14499488549201 0  1.85625 0 0  1.44375 0 0  1.44375 0.41 0  1.85625 0.41 0  2.13125 0.41 0  0.7562500000000001 0.41 0  0.4812500000000001 0.41 0  1.16875 0 0  1.03125 0.41 0  1.03125 0 0  1.71875 0 0  1.99375 0 0  1.99375 0.41 0  0.9408708167433545 0.0651989315768642 0  1.340625 0.3489494290853124 0  1.134375 0.3489494290853123 0  1.700180620188976 0.3438659752031281 0  0.29668452290037 0.1318471691375986 0  0.3175441051360096 0.06496934809856265 0  0.06509151636162461 0.08140814015999148 0  2.135782184673599 0.07126652247502523 0  1.668441847249787 0.2129203728327609 0  1.295782514339747 0.2378437748815763 0  1.409375 0.3520314716057996 0  2.129248544730567 0.1906135162504124 0  2.060771381434487 0.1989445750470348 0  2.013252586573865 0.1496169464686054 0  1.942766402200229 0.1734448904596831 0  1.895522487186454 0.06076163953489683 0  2.069553871656643 0.06605731020975725 0  0.4670911801404742 0.2498408582391372 0  0.7622743084658112 0.1264100838268133 0  1.274680914880868 0.3520219391081363 0  0.3148669572599245 0.3331753056385887 0  1.614713220494657 0.09473434380863296 0  1.72990325744076 0.2380068107952482 0  1.356580098625191 0.2120393231351682 0  2.034370752044885 0.2668681600792073 0  1.51768709249349 0.3426260931494756 0  1.561883724969884 0.1650446847858835 0  1.197344062229598 0.2523725417393646 0  1.804085235518364 0.3468178408964637 0  1.817887819205233 0.2589243285818559 0  1.905897727272727 0.3485060975609756 0  0.7296439733931823 0.06337466644369745 0  0.4250935971865949 0.1394919578475796 0  0.3773030136511669 0.05130372097998036 0  1.192836486056382 0.3562350748565544 0  1.1029124365364 0.226143510831178 0  1.28257088594801 0.2944411014911587 0  0.1905185804731426 0.06029880676029167 0  1.474860187679412 0.2504218616229368 0  1.406767003493824 0.2829282258560709 0  0.5209826960981064 0.2830664557824064 0  0.5131119502780163 0.3617405848213254 0  0.1948220106098172 0.3081993407644811 0  1.845656689180403 0.1998310418452388 0  2.144958525570388 0.2909790873294231 0  2.2 0.15375 0  0.8833025251326762 0.2625402923007629 0  0.171875 0.3653875762360952 0  1.57794966442982 0.3540357145964566 0  0.446875 0.366068291212731 0  0.4272051715206439 0.2891929346190664 0  1.508991196088596 0.1421783375065625 0  1.50436820029908 0.06143401634903343 0  1.223857000523521 0.08235548624535324 0  0.6137904613287555 0.3066826366281556 0  1.153316824384777 0.1289850171317838 0  0.9751573703656133 0.327632618473408 0  2.148922302309752 0.1258841779285271 0  0.9281250000000001 0.3643758685795699 0  1.621993280276081 0.2841214267927899 0  1.550118654119087 0.2461998729100966 0  1.327182649291491 0.1216967252533594 0  0.9939955742738924 0.04663549843168518 0  1.753125 0.04556020050186112 0  1.271875 0.04556020050186116 0  0.9734326767716519 0.1506854560854393 0  0.103125 0.3675775577080512 0  1.94956388244759 0.1180512551534177 0  1.949997712993411 0.04965831614304109 0  0.717433898748555 0.295596016333797 0  1.771961817615021 0.1530278789497521 0  1.909246823951428 0.2812757146784527 0  0 0.35875 0  1.050632804931928 0.1226269704412814 0  0.05695108326502596 0.2024009637347154 0  1.948575539857022 0.2445328248721197 0  1.697271520964565 0.1233917627620729 0  1.065625 0.3689344961371042 0  1.085849084308977 0.3170853572226867 0  0.1015495998772944 0.04226029099983852 0  1.577403511714593 0.05463601888079143 0  1.751571320346033 0.3651102912045228 0  2.2 0.35875 0  0.7441773632462837 0.1786786606458751 0  0 0.05125 0  1.466879772203159 0.3611261772912453 0  0.6282230348858767 0.3577675483994025 0  1.990280163552011 0.3564754268533217 0  1.17471064520912 0.2990917256188288 0  0 0.25625 0  2.2 0.25625 0  2.2 0.05125 0  0 0.15375 0  1.853978576207987 0.35875 0  1.515638456102889 0.2882700110184686 0  2.150453692751374 0.2387066338105111 0  1.323782677156475 0.04897634338873398 0  1.409375 0.03715320121951221 0  1.406484531114799 0.1087852750766809 0  1.134375 0.03715320121951219 0  0.721875 0.3729363922161693 0  0.7941695928236929 0.3696489254637395 0  0.7934827162619036 0.3013409431456604 0  1.627401732573545 0.04552157221025036 0  0.9352049974617431 0.2507047965699472 0  0.8763260682738339 0.3611103317460093 0  2.045405893604797 0.1105340662939892 0  1.255408269734577 0.1577307500159216 0  2.028125 0.03707597992059326 0  1.003030137506755 0.3689344961371042 0  1.248258025468107 0.2565907092181813 0  1.203125 0.03661323374043041 0  0.4800125512335631 0.0549472816999725 0  2.072662025974815 0.2975086504196739 0  0.240625 0.3729825336867542 0  1.113252391110535 0.10238286244357 0  1.071052763974265 0.1885202618768825 0  0.8738809401657862 0.3106483608284829 0  0.6786819423003397 0.2677558482644021 0  1.887722846421017 0.1760882698830035 0  1.472640588990488 0.1118278026240017 0  0.5843750000000001 0.41 0  1.865937103925594 0.2604137786483804 0  1.463913572748262 0.2030442564990043 0  1.376426316059077 0.3186741374914345 0  0.1038643885363755 0.2162701735320032 0  0.1769473813227781 0.1070849728467114 0  0.458787839809176 0.171541653775316 0  0.240625 0 0  0.04179569703428024 0.2877217852556549 0  0.1258346557601885 0.2699740073054968 0  1.722140693354707 0.282908100935778 0  0.41206179117512 0.2448172567039922 0  0.3702471778075604 0.2265217604228704 0  0.3714881805374215 0.1786967818665642 0  1.77397096061971 0.2481483237422926 0  2.105123889160691 0.03743885948498647 0  1.001138337938679 0.229719337663998 0  1.051242910646791 0.2854826559431138 0  1.395420985247586 0.18
[...]
<PointData  Scalars="f_43"> 
<DataArray  type="Float64"  Name="f_43"  format="ascii">1.0609899526638075e-01  2.0263031637913584e-01  6.4265041544641566e-11  2.2289523214948732e-10  7.8216401975217689e-02  8.1062711709377552e-02  6.7408066928775795e-02  6.3520255679861817e-02  1.3459316693698767e-01  1.3691112683328668e-01  8.7876033361456288e-02  6.9246811913177275e-02  -7.0474879086076204e-03  -6.2831348353438220e-03  -9.5846258469247363e-03  -1.4545021691571529e-02  3.1873319046591145e-02  2.2335575657535437e-04  -1.0784925033105339e-02  8.6373973994339742e-02  1.5113985146014114e-01  1.4887346594305656e-01  7.3895198472967785e-02  1.1661095254065123e-02  -2.3609962909592143e-02  -3.7418034437368054e-02  -2.7645018310182134e-02  -1.3063023778842052e-02  1.6300969739685273e-02  1.1642280023156036e-01  8.4223820666890978e-03  5.8252883439315048e-02  4.7721240078110107e-02  9.9890298904450822e-02  -6.6311417513545748e-04  9.1475531367943036e-02  2.3942060312601627e-03  -3.0963870908224862e-03  6.0455266812878324e-03  7.3736445236452369e-03  7.4021419200304608e-03  1.1548779636868905e-02  1.0625493987968420e-02  3.6938596793486341e-03  3.6971338726457916e-03  9.2341231711950706e-03  5.5409391346990036e-03  3.2313677524809900e-03  1.2844799063885342e-02  1.1356392869750786e-10  2.7705501061847967e-03  7.9697214606699138e-02  1.8448014664369310e-03  1.8463486495069762e-03  2.3963141223452648e-10  5.5382063962033214e-03  1.1298594716631622e-02  9.3453656779316878e-03  5.5444232447736013e-03  9.1297545248083464e-03  3.3966625747885682e-03  1.0459670324842645e-01  1.1218567410805387e-01  1.0478714307083047e-01  8.3683060236691056e-03  8.9491681189356066e-03  1.4354165469534675e-02  1.5650259286230324e-02  1.1208813606420539e-02  7.4011328034573158e-03  -4.6276507515026991e-03  8.9680760753008210e-02  9.7426106384559674e-02  7.0220708902090697e-03  1.1150728901108027e-02  1.1062453360750315e-02  -2.4902809266017052e-03  4.0989974122741081e-03  1.4400606801899566e-03  4.6153074125306684e-03  1.0698617959636690e-01  1.2684569616294022e-01  1.3522457807067247e-03  7.1535995937011126e-02  2.7693300095047433e-03  9.7864908881228393e-03  8.4343859846122016e-03  5.6385892682974626e-03  3.2324286968782980e-03  6.0586920604740642e-03  1.3273286597484854e-02  3.1855489251628854e-03  1.1115186820819663e-02  1.3072551844520105e-10  1.1542777410796914e-02  8.7789186698166502e-03  1.0373398295189105e-02  1.5657940373010808e-02  1.7307678788317283e-03  2.9353302546524115e-03  4.0394228576331147e-03  2.3574579285034581e-02  5.8194956661296671e-03  1.1375314898959285e-02  1.0399610804013458e-02  1.1160894974230082e-01  8.8392656418262161e-02  1.2683885918238169e-01  1.0322795179182631e-01  4.1066263554353512e-04  4.1335433388271141e-04  -3.0787590043046317e-03  1.0886483505723168e-03  9.1612923007205452e-04  1.2622431541322238e-01  1.1119005783748210e-02  8.0827799005437732e-03  8.5799894990670117e-02  9.3420955200562927e-02  3.2660834745576163e-02  4.9812761593477743e-03  1.1899683664843032e-01  6.4610746409219429e-03  1.0640461773859716e-01  1.0489542448912384e-02  2.1746915190717633e-03  -6.7252688740725474e-03  1.0142886876716815e-01  -4.2780246709465605e-03  9.4129178502165137e-02  2.5510795259713064e-03  2.7500837173874706e-03  -8.9403701589318573e-04  1.0132261033543359e-02  1.1612968426620541e-02  1.2865690500790887e-02  1.5719155170144966e-02  6.4377533397245350e-03  1.3863586066554764e-02  1.2254587948820419e-02  7.0551696103710523e-03  1.4269375056345096e-02  1.1413635303080896e-01  9.4250957907182382e-04  1.2311883689262969e-02  -4.2405008293192482e-03  8.4406679429600284e-02  8.5893661178183797e-02  8.5121351312158033e-02  9.8963216506121901e-02  8.3608925661529925e-03  1.0444739492541458e-01  5.9658596846069393e-03  1.0649952698556275e-01  1.0374518461836942e-01  8.2625273981749708e-03  7.6128977708920503e-03  5.0293571797374488e-03  4.6151016354585989e-03  1.0396417759784614e-02  9.9370145763281893e-03  4.6155723155070563e-03  9.1868715755540477e-04  3.0825579570786603e-03  6.8314989831767828e-02  1.5789591196718512e-02  5.3990778374263118e-03  1.4301697557793133e-02  6.4676856192320397e-03  2.7664331098035673e-03  2.7707276303818957e-03  5.8641314956676960e-03  1.0935762890189750e-02  9.7425481781344032e-03  6.7072174306740508e-03  8.5014331358787873e-02  1.0013714997591566e-01  1.2677046618151999e-01  8.6191804698788476e-04  7.1402531640995838e-03  1.1825338617815267e-02  1.0307860655548789e-02  9.4846642788659835e-04  1.8679914803855743e-03  2.5062742241772251e-03  3.4524738325708176e-03  4.0869666671890592e-03  1.7511296959686563e-03  7.8210927418885606e-02  -4.5588698482636868e-03  1.1267118073561601e-02  8.7601501708393481e-02  7.8906684806582788e-03  6.3133609896209577e-03  1.1274434541772321e-02  2.2251617847490208e-03  9.0689970766938341e-03  8.5954392423606280e-03  1.2379755100569722e-02  5.3173301977078331e-03  5.1298478101450065e-03  3.9519733328554326e-03  -3.0377850967704227e-03  1.1634385153120408e-01  1.0464829622397299e-01  1.0936619842365760e-02  1.3384469939691928e-02  1.1501539147305107e-02  1.0452789388334728e-01  9.6739094637299811e-03  1.0434043720134727e-02  4.2628370055894475e-02  5.8253252621027478e-02  9.0672345678542599e-02  4.7581329805238019e-03  7.3754704707096872e-04  -1.9622615331527937e-10  -2.9784639546228194e-03  1.0123901363356225e-01  8.3077746370342365e-03  7.4843617005850557e-02  8.5787695040582174e-02  9.3444936844477855e-03  9.4616928117735345e-03  1.4493988799925559e-02  -2.6742891923812137e-03  1.5420915003371680e-02  4.1884418175059737e-03  6.8609501299534727e-04  3.6879901816817377e-03  7.7455628212623820e-03  8.7037882061303685e-03  1.2198278483504858e-02  1.1125399166782735e-02  6.0066282353003989e-03  1.3574253626186731e-02  6.1096608688966832e-03  1.0550825033626209e-01  3.3620079885182150e-03  3.3555403630451397e-03  -4.6972723741903789e-03  5.7519784258701972e-03  3.9041415310645377e-03  1.0596330832315355e-01  1.4732691883754605e-02  1.1908499181215841e-01  3.3758567690117137e-03  6.7585065057962027e-03  6.7872699669206038e-03  8.4148037140612687e-03  1.2093054318241338e-01  8.4157396405243196e-03  6.0206416707351100e-03  2.2289523214948732e-10  -4.8492406547233280e-03  1.3555022485556506e-01  9.6719835408681908e-03  1.6730450610089098e-02  2.8178514600708162e-03  1.1360115152698290e-02  1.1047532107054465e-01  1.1356392869750786e-10  6.4265041544641566e-11  1.2210986000489640e-01  4.6471355106574210e-03  9.1208312810667890e-03  6.6511192819485444e-04  1.2497741519404727e-02  1.0957762345833682e-02  1.0918937364991855e-02  1.6188265271421372e-02  5.4556330845147152e-03  3.4785542150078969e-03  -1.2091920318125970e-03  7.7200131418933430e-03  9.6395373921647962e-04  3.6935186895010971e-03  2.0756167988720390e-03  1.3171458857689654e-02  2.3101419390981455e-03  4.3847479476133129e-03  1.2047573561715250e-02  1.5085189392641737e-02  1.0675622978323884e-01  1.7112498066456799e-03  9.4181120252977757e-02  1.6111408436978749e-02  1.4461570156018781e-02  1.7156587724322591e-03  -1.3046149098561876e-02  4.1929235932139314e-03  9.8991594106196436e-03  3.5127744823316917e-02  4.4855221647815769e-03  9.8898308623202730e-03  1.0677730525253146e-02  1.2205854867630177e-01  1.0515902248739287e-01  1.1479757185051059e-01  1.0087747733732988e-01  1.0826558943518705e-01  1.0457456726511960e-01  6.4143943019002690e-03  8.9428856427719666e-02  8.8950888216254118e-02  8.9913561010952367e-02  5.7218214411670016e-03  1.2735261108104666e-03  8.4873567260894487e-03  8.4693750288878759e-03  1.0850166240169830e-02  2.3113157560931178e-03  8.0846992261169245e-02  8.0413618990641603e-03  1.2571210570322430e-01  1.3035446723737359e-01  -5.5392160631897282e-03  -3.2980892607895589e-03  9.1546014403129441e-02  5.2087888521875816e-03  2.8138149875998530e-03  8.6445941562246678e-02  8.2166560258247909e-02  8.3366688506349582e-02  5.0197711032887973e-04  1.3870431356685494e-03  1.6730300208527475e-03  -7.6963594684822923e-04  6.0431325708511299e-03  7.8253105161367395e-03  1.0205907783553049e-02  5.4629869838168513e-03  3.9083449473599464e-02  1.3643277062225106e-01  1.0578642819455485e-01  2.6054562630007101e-03  1.0810537984612968e-02  -4.1969621284717049e-03  8.8449456402271712e-02  9.0017759816320236e-02  1.3800821004579666e-02  9.8572088413224155e-03  7.6422080871309007e-03  8.7049898040225584e-03  1.4346704952035378e-02  6.9458421056758715e-03  6.6126099573189240e-03  5.4497642264763257e-04  5.4516333675231146e-04  1.2888404288773977e-01  1.3167561193528432e-01  1.0613350113084591e-01  1.1202862368370059e-01  8.4086636125135718e-04  5.5979688748610913e-05  7.5839934153814686e-03  5.4095830655074232e-03  4.4583067472131251e-03  8.7724201967026405e-02  7.9405215278734578e-02  1.0000889894541734e-01  8.8517002739052063e-03  3.4056764505652811e-03  -6.6511886095535749e-03  1.3594351470386415e-01  -5.3915405122799366e-04  5.0806952789005343e-03  6.2278337184471172e-03  7.1891105579724116e-03  1.0782169086606670e-01  1.9243270698016568e-03  9.5299337163779904e-02  8.6155227109141197e-02  8.6840551496069167e-03  1.1199165357382770e-02  8.7368494274734379e-02  1.4216598998216389e-03  1.0013151320842869e-02  -3.0110182384337327e-03  1.0159419032571597e-01  8.1731086560334100e-03  -8.7967929172819929e-04  1.0633537833071419e-01  1.0029056433120982e-01  7.7539938530573366e-02  5.7348363088446834e-03  3.3929439135306377e-03  1.2780356829884727e-02  1.5007003251755038e-02  5.2512103299482630e-04  1.2630554933924293e-01  1.1166186306689316e-02  7.9989013407138460e-02  9.4503476268082073e-02  -4.1566467644628992e-03  -5.2366236919238994e-03  2.8296307483871587e-03  5.3064739297429248e-02  4.1552930534569203e-03  9.5015181164217408e-02  4.6010223903892485e-03  4.1530306780121371e-03  3.6439798140936929e-03  8.4679227876075860e-02  9.3456762368108286e-03  1.1261959222801009e-02  6.5519076309236597e-03  1.4144891588600220e-02  1.6087776444644944e-02  7.1949053774510927e-03  7.3656321798808919e-03  8.3590707390979457e-02  1.1370208844139326e-01  2.1902145883102276e-03  1.0707015253816034e-02  8.7114025706766726e-02  1.7718986869105723e-03  1.2272314359375923e-01  5.6652704255078642e-03  -3.6107234791657480e-03  -3.2101169837485850e-03  2.2712402166656070e-02  9.5826521482381237e-03  -1.3310303618145640e-02  2.2462987482523315e-03  1.0024258122441822e-02  9.1890391976804306e-03  1.0637968974493012e-01  -1.0343031347020350e-03  3.4294844765924665e-03  3.7500606954532136e-03  -3.6943342694439702e-03  9.0971979108464603e-03  1.5757540527784150e-02  -1.1944810725630546e-03  -1.7633862323001746e-03  -1.8783251068450551e-03  6.0799573156586533e-03  1.2360377450941604e-02  6.2828631010391984e-03  1.2719118924616205e-02  1.1518080890773412e-02  1.1813524366805522e-02  6.9104547294312636e-03  1.1819793116633719e-02  3.0368683178675503e-03  8.1354730959037988e-02  1.3747464696560767e-02  1.4992464446293079e-02  7.9999850184578752e-03  7.1400254404060566e-03  -6.6211632286649062e-04  2.2500876271954822e-03  7.6692539518698815e-03  8.1319679418464484e-03  8.9147676666410328e-03  8.0237860920838469e-02  8.2984111652015594e-02  5.5278500379454115e-03  5.0802042759834779e-03  8.6187276042042751e-02  1.8402321109171071e-03  2.3211241145939666e-03  1.2651934824991187e-02  1.2257847575537176e-03  4.0617100226059532e-03  -3.6361144215771562e-03  1.1130224998170267e-03  4.9301683977782940e-04  5.7476010541477086e-03  8.8953172417142509e-03  1.2547175611582695e-02  1.2046432257614250e-02  7.9333564552412257e-03  1.4314959121552438e-03  1.3087978538715211e-01  1.0743212142821208e-01  1.0949503769899730e-02  8.3156109411801158e-03  1.0226264628055683e-01  -6.9823236260537023e-03  4.7184654358958144e-04  1.0730331952212766e-03  3.2628936395677371e-03  1.2270985071270984e-03  1.3046330606318312e-02  4.5878980018940283e-03  5.3438757816078155e-03  -3.1934267762868708e-03  3.6349245744646242e-03  -8.4598475193518926e-03  2.3434635051153955e-02  8.9702288026092536e-03  3.6863266420889564e-03  8.5002144834477201e-03  1.0282449722103614e-02  9.6591580287581184e-03  1.1105369809205047e-02  1.0911751686120758e-02  1.0635262514333740e-02  1.0472803732023752e-02  9.2602678927212051e-02  1.0259230085666443e-01  1.0360524348116748e-02  1.0493643818243060e-03  1.0993046700288096e-02  4.6440670860960096e-03  1.4956487505829822e-02  1.4321216531868464e-02  4.7080970244801797e-03  1.0327038514816077e-02  6.9130258723540082e-03  2.7760651220927342e-03  2.2955108870505734e-03  1.4678166134703905e-02  3.2199852737770907e-03  1.1227410603793364e-02  8.9676493038211916e-03  9.8081200804861157e-02  1.0401958021328774e-01  1.5732207439588881e-02  1.2180447727128165e-02  4.6472740700579816e-04  1.3739595001088377e-03  4.8086821624311231e-03  1.6301892981486675e-02  1.0958628057631797e-02  9.5386941791061105e-03  6.0007808106242299e-03  6.9140647460085216e-03  6.0053495450021806e-03  2.9781854512036759e-03  1.0299120782861586e-02  4.6357178347795008e-04  1.0550315235445160e-01  7.5155972833947746e-02  1.0304596932566326e-01  9.5068221879707315e-02  1.1612634497487802e-01  1.0609915888565898e-01  1.0247243418721960e-01  1.0628874278441013e-01  2.5427461048638162e-03  2.4717310399517147e-03  5.9337461085874024e-02  1.4324854251593950e-02  3.5447786073805028e-03  1.5125296332276883e-02  4.1137298919731889e-03  7.8834364578650971e-03  3.2296707901061385e-03  1.3590951773518614e-02  1.1934501635206620e-02  2.3081427710400400e-03  3.2286655178318329e-03  6.9478374824383082e-03  6.4751529094020143e-03  8.8549768060764644e-02  6.9349850535632127e-02  4.5658161983228709e-02  1.6234060730561797e-02  2.5413690127950510e-03  1.2341654256649150e-01  1.0389522630639822e-02  1.4649175483636949e-02  2.0952579313819695e-03  2.8576923265839171e-02  8.8161483859482859e-02  1.1374322442172900e-02  1.1421111425250482e-02  7.9352069932824718e-02  1.0770934734249445e-02  8.8236201393324578e-03  9.3713298270356772e-03  3.9226893076642925e-03  9.9783384332715122e-03  1.0114162680603767e-02  6.6948226808908008e-03  4.1317138259434928e-03  1.2041391929863171e-02  6.6284498776861449e-03  4.9859109182380278e-03  7.1389967281921688e-03  1.1860456476906617e-02  3.6799179689605758e-03  9.3350214852022401e-03  8.1219962228883096e-03  1.8594954779800439e-03  1.5140763533425814e-03  9.9001698803387550e-02  6.7524900804370319e-02  -4.6624604316286020e-03  -8.5374310443423059e-04  1.1335389036184454e-02  1.1357262392619472e-02  3.7009104335607615e-03  3.8344826865940947e-03  1.5301618039350038e-03  1.5837536563672473e-02  2.1534709779219749e-03  5.3097993973020407e-03  1.0132011797877616e-01  4.9157358098989674e-03  6.7432939460817885e-03  4.7977830155077478e-03  3.2064148464835442e-03  1.0529178414845373e-01  4.2492719362755173e-04  -3.7580860689905796e-03  8.5038252001696322e-03  8.3571769932200252e-02  -2.4956907230403530e-02  8.3544827149675052e-03  7.5090443262009580e-03  3.9248308810872594e-03  1.2592646022513460e-01  8.4809732575775662e-03  -2.3178583785772229e-03  8.0766148284024033e-03  -3.3155485919622784e-03  1.0489900255894831e-01  1.1171071085683096e-01  8.9790295315245964e-03  1.2033457782031262e-02  1.2663446915582138e-01  1.0608968492911519e-01  4.3867633733461831e-03  -1.8547470661665422e-03  3.4792073302444518e-03  1.3407288911944083e-02  5.4507503848954409e-03  8.6043368943833111e-03  5.2230811765928715e-03  1.1263054317463349e-02  6.0820270972359999e-03  1.1089547565806121e-01  9.8001433196253512e-02  1.5870902544343826e-02  1.2304498449805242e-02  1.1921184827536709e-02  1.3006927890584431e-02  7.2227680797975818e-03  9.9010615306612867e-03  1.4771310116412991e-02  5.4584291531730653e-03  4.8822027243436558e-03  1.4316900054486353e-03  9.5653384455470468e-03  3.0311008519722416e-03  1.5599710223186539e-01  1.0601291971364032e-01  8.9074401986869618e-03  4.0465888310465816e-03  -7.4189338730481034e-03  9.9339161815746230e-02  1.1299987517960269e-02  8.6821856833006958e-03  1.0754170910671394e-01  8.2937025662119024e-02  2.9494552949745692e-03  1.0815023255584880e-01  8.6914794548126395e-02  1.0870250419464007e-02  -9.4652058926320629e-03  1.6800179775554078e-02  5.0678031930316191e-02  1.3820384503317197e-02  4.8465224130947058e-03  2.4587380765612849e-03  1.3438977573134914e-03  1.1881906119720477e-01  5.0058341069383660e-03  1.2467482582502923e-02  7.6833156210523758e-03  4.3165267775322437e-03  1.1356392869750786e-10  8.8487072915630766e-02  8.9424652673214566e-04  -6.2602350596066142e-03  1.2974374504113111e-02  3.8619495520728808e-03  7.4004362864204705e-03  1.0784411771084573e-01  1.2198296262529601e-01  4.7569965663590337e-04  1.8243662313819785e-03  8.3852743516988543e-02  9.7745941246849891e-02  1.1972591695669428e-01  4.0835101650631552e-03  1.0792119682222392e-02  1.0005286652140290e-02  9.6644445350806060e-03  9.4561522964286583e-03  1.0468500820652982e-02  4.4292187633911033e-03  9.4468331136044054e-03  1.1197128954072581e-01  1.0767145169178738e-02  1.0353093208501021e-02  -5.2305502834697924e-03  4.6361866457085274e-02  8.8472497849193421e-02  8.0379395554696323e-02  4.3531635101354063e-03  1.1038150781935407e-01  1.2197268795383949e-02  4.7303491684361314e-03  -6.4431969960364729e-03  1.2783547802250630e-02  1.2117992074740328e-02  1.3800648788512894e-02  1.3072551844520105e-10  1.3142191254773281e-01  8.6467827787762824e-02  1.1696051620741502e-02  1.1764893658315820e-02  -5.9517952622890283e-03  1.1197514563180560e-02  6.3185657657154415e-03  1.0101510377732333e-01  8.9910007975049624e-02  1.6354505697917941e-02  9.3500523572212224e-03  6.3785094647491061e-02  1.2923084879093107e-02  2.5829766166935949e-03  9.7410840262124182e-03  7.5126882167886400e-03  2.8191187832386982e-02  3.3481683899088495e-03  4.3560689012231797e-03  5.7704078208337057e-03  8.5001286232572778e-04  9.3654041864671357e-04  3.8981471946839875e-04  7.9359985028817040e-02  5.0139331456050033e-02  4.4017565546029041e-03  2.8589855605622265e-03  -7.9407767833642329e-03  3.4184283164672320e-03  1.3019735683601095e-02  6.2390221606194018e-03  5.7219997480727220e-03  1.1477682123266657e-01  8.1936331924745524e-03  1.4871412875782022e-02  1.5599927482893483e-02  1.0601977421302262e-01  1.1638715183280768e-02  8.1160394056894000e-02  -5.5484337815079523e-03  1.0133685024365433e-01  1.1231683507433841e-02  1.3217585704678030e-02  -5.3606496692881868e-03  8.7985218404400767e-02  -4.1499112987019755e-03  1.0146436913391559e-02  1.1356392869750786e-10  4.6379195289010799e-03  4.7695656327586501e-03  8.3386221779445033e-03  7.9324733132932045e-03  8.8967309173229051e-02  8.5921921884836050e-02  3.7541456008636366e-03  -1.1086439433990870e-03  3.4787518544890737e-03  1.4812809982514695e-03  8.9960471673637774e-03  8.5029649737300098e-03  8.3760617127655763e-03  7.3701267141198346e-02  1.0934657440866344e-02  -1.8102796254534615e-03  1.5109790282668980e-02  7.8297833510501541e-03  7.2070517676415362e-03  9.8947717854540856e-03  7.1601337108326705e-03  5.1556617445266059e-03  5.6489075746943953e-03  3.7195786873020970e-03  3.5495333597551633e-03  9.8247965362759426e-02  1.0839519794173692e-01  6.3430401749454907e-03  1.1528155421866845e-01  1.0414457387020007e-01  5.9255922665382233e-03  3.6353322490934475e-03  9.2724515307638956e-03  8.4658407017497734e-03  1.0752799343567808e-02  -6.2088266735233997e-06  1.0141376519144121e-02  7.7069235564995828e-02  4.3317862701967467e-03  1.1472638545894042e-02  1.5521960352893435e-02  7.9549991412030382e-02  -2.3675325347032867e-03  6.8424897450733184e-03  1.4367155675688114e-02  1.1599141287663996e-01  1.0493907502730698e-01  8.1007498973694782e-03  -2.4687099460455524e-04  1.1717538401398536e-02  8.0616178287284661e-03  1.1369542858891439e-02  1.0593346521529960e-01  6.0442872930042161e-03  9.1080826977225846e-02  8.9045741910162481e-03  6.6890697243208092e-02  9.1354952945545316e-04  5.4073509677190828e-03  6.8302203084040980e-03  1.0575195520825394e-01  1.1128633329965703e-02  9.7363137651064711e-03  9.6661787822340303e-03  9.3696167764806583e-03  1.0398475935062026e