<?xml version="1.0"?>
<VTKFile type="UnstructuredGrid"  version="0.1"  >
<UnstructuredGrid>
<Piece  NumberOfPoints="1404" NumberOfCells="2604">
<Points>
<DataArray  type="Float64"  NumberOfComponents="3"  format="ascii">0 0.41 0  0 0 0  2.2 0 0  2.2 0.41 0  0.2353553390593274 0.2353553390593274 0  0.25 0.2 0  0.2353553390593274 0.1646446609406726 0  0.2 0.15 0  0.1646446609406726 0.1646446609406726 0  0.15 0.2 0  0.1646446609406726 0.2353553390593274 0  0.2 0.25 0  0.6923879532511287 0.188268343236509 0  0.7 0.15 0  0.6923879532511287 0.1117316567634909 0  0.6707106781186547 0.07928932188134523 0  0.6382683432365089 0.05761204674887133 0  0.6 0.04999999999999999 0  0.5617316567634909 0.05761204674887134 0  0.5292893218813453 0.07928932188134524 0  0.5076120467488713 0.111731656763491 0  0.5 0.15 0  0.5076120467488713 0.188268343236509 0  0.5292893218813453 0.2207106781186547 0  0.561731656763491 0.2423879532511287 0  0.6 0.25 0  0.6382683432365089 0.2423879532511287 0  0.6707106781186547 0.2207106781186547 0  1.1 0 0  0 0.205 0  1.1 0.41 0  0.55 0 0  0.55 0.41 0  0.275 0 0  0.8250000000000001 0 0  0.275 0.41 0  0.8250000000000001 0.41 0  0.6875 0 0  0.61875 0 0  1.65 0.41 0  1.65 0 0  1.375 0 0  1.375 0.41 0  1.925 0 0  1.925 0.41 0  1.5125 0.205 0  1.7875 0.205 0  0.9625000000000001 0.205 0  1.2375 0.205 0  2.2 0.205 0  1.99375 0.2152743902439024 0  0.4125 0.41 0  2.0625 0 0  2.0625 0.41 0  2.2 0.3075 0  1.7875 0.41 0  1.375 0.1486128048780488 0  1.5125 0 0  1.7875 0 0  1.5125 0.41 0  0.9625000000000001 0.41 0  0.4125 0 0  0.1375 0 0  0.1375 0.41 0  0.6875 0.41 0  0.9625000000000001 0 0  1.2375 0 0  1.1 0.1486128048780488 0  1.2375 0.41 0  1.65 0.1486128048780487 0  0.823495464168302 0.2603780552348366 0  0.3738707794507017 0.2720196349488618 0  0.3662291281331582 0.1311456406657909 0  1.676715909090909 0.2793064024390244 0  1.126715909090909 0.2793064024390244 0  1.348284090909091 0.2793064024390244 0  0.8287581077665108 0.1302150898054257 0  1.894702181800738 0.1282910975492754 0  2.092797818199262 0.1282910975492754 0  1.85625 0.3075 0  0 0.3075 0  0 0.1025 0  2.099172119769978 0.25625 0  0.4752414543992246 0.3180372603390748 0  1.99375 0.08395950269330846 0  1.459960956013612 0.3075 0  1.569025960719943 0.2986889805672169 0  1.03125 0.3278689922742084 0  1.959375 0.3126371951219512 0  1.749222215368287 0.1025 0  1.275777784631713 0.1025 0  0.9228016959331474 0.3075 0  1.000777784631713 0.1025 0  2.2 0.1025 0  1.225938124459196 0.3075 0  1.550777784631713 0.1025 0  1.44375 0.07430640243902442 0  1.16875 0.07430640243902439 0  0.7562500000000001 0.3358727844323386 0  0.89375 0 0  1.899250267340833 0.2229966846119207 0  0.61875 0.41 0  1.766482954545455 0.2934032012195123 0  1.046078563095834 0.2389031808701145 0  1.421109702350723 0.2261157654379721 0  0.07567171807980319 0.25625 0  0.2511897295290552 0.3235829392832554 0  0.07655002503762308 0.1488653460959645 0  0.1377245246847496 0.3206030474919778 0  0.6694099692696568 0.3242771941727899 0  0.9168971191497528 0.1295727156104653 0  0.7562500000000001 0 0  2.118919042110979 0.3422084711244843 0  2.13125 0 0  0.06875000000000001 0 0  1.30625 0.41 0  1.597888256393107 0.2173787389261347 0  0.34375 0.41 0  0.2493272016354703 0.08091360081773515 0  0.5588896233436766 0.3264056208677571 0  1.829299675393195 0.07400700849299596 0  0.1334079128307869 0.08523463035786674 0  1.71875 0.41 0  0.06875000000000001 0.41 0  1.16875 0.41 0  2.038220665644273 0.332420740103091 0  0.8810647413215221 0.2027360103977071 0  0.34375 0 0  0.7453891198966415 0.2471459041008237 0  0.42112093004955 0.1988123139090554 0  0.8314023090855964 0.3351170841770613 0  0.89375 0.41 0  0.7906250000000001 0.06615386481594063 0  1.452769549894695 0.1548122580621249 0  1.369219062229598 0.07430640243902442 0  1.30625 0 0  1.07420695807087 0.07430640243902439 0  1.720943423819132 0.1714577452753128 0  1.157188124459196 0.205 0  1.304056576180868 0.1714577452753128 0  1.67579304192913 0.07430640243902437 0  1.209670467133757 0.136210026696477 0  0.4312800784902823 0.08036147352247747 0  0.8723959680194693 0.07066860609690805 0  1.025335513626278 0.1700681449722324 0  0.7945632284247136 0.1940204203251442 0  0.378125 0.3452261501101892 0  0.3307109909790086 0.2037165635083759 0  0.3009701032039409 0.2702970083403109 0  0.20625 0.41 0  1.58125 0 0  0.4812500000000001 0 0  0.9838963872396855 0.2722244191167347 0  0.06772484939107212 0.3260067317374387 0  0.20625 0 0  1.58125 0.41 0  1.631724228912893 0.3381867502687533 0  1.825608881788174 0.14499488549201 0  1.85625 0 0  1.44375 0 0  1.44375 0.41 0  1.85625 0.41 0  2.13125 0.41 0  0.7562500000000001 0.41 0  0.4812500000000001 0.41 0  1.16875 0 0  1.03125 0.41 0  1.03125 0 0  1.71875 0 0  1.99375 0 0  1.99375 0.41 0  0.9408708167433545 0.0651989315768642 0  1.340625 0.3489494290853124 0  1.134375 0.3489494290853123 0  1.700180620188976 0.3438659752031281 0  0.29668452290037 0.1318471691375986 0  0.3175441051360096 0.06496934809856265 0  0.06509151636162461 0.08140814015999148 0  2.135782184673599 0.07126652247502523 0  1.668441847249787 0.2129203728327609 0  1.295782514339747 0.2378437748815763 0  1.409375 0.3520314716057996 0  2.129248544730567 0.1906135162504124 0  2.060771381434487 0.1989445750470348 0  2.013252586573865 0.1496169464686054 0  1.942766402200229 0.1734448904596831 0  1.895522487186454 0.06076163953489683 0  2.069553871656643 0.06605731020975725 0  0.4670911801404742 0.2498408582391372 0  0.7622743084658112 0.1264100838268133 0  1.274680914880868 0.3520219391081363 0  0.3148669572599245 0.3331753056385887 0  1.614713220494657 0.09473434380863296 0  1.72990325744076 0.2380068107952482 0  1.356580098625191 0.2120393231351682 0  2.034370752044885 0.2668681600792073 0  1.51768709249349 0.3426260931494756 0  1.561883724969884 0.1650446847858835 0  1.197344062229598 0.2523725417393646 0  1.804085235518364 0.3468178408964637 0  1.817887819205233 0.2589243285818559 0  1.905897727272727 0.3485060975609756 0  0.7296439733931823 0.06337466644369745 0  0.4250935971865949 0.1394919578475796 0  0.3773030136511669 0.05130372097998036 0  1.192836486056382 0.3562350748565544 0  1.1029124365364 0.226143510831178 0  1.28257088594801 0.2944411014911587 0  0.1905185804731426 0.06029880676029167 0  1.474860187679412 0.2504218616229368 0  1.406767003493824 0.2829282258560709 0  0.5209826960981064 0.2830664557824064 0  0.5131119502780163 0.3617405848213254 0  0.1948220106098172 0.3081993407644811 0  1.845656689180403 0.1998310418452388 0  2.144958525570388 0.2909790873294231 0  2.2 0.15375 0  0.8833025251326762 0.2625402923007629 0  0.171875 0.3653875762360952 0  1.57794966442982 0.3540357145964566 0  0.446875 0.366068291212731 0  0.4272051715206439 0.2891929346190664 0  1.508991196088596 0.1421783375065625 0  1.50436820029908 0.06143401634903343 0  1.223857000523521 0.08235548624535324 0  0.6137904613287555 0.3066826366281556 0  1.153316824384777 0.1289850171317838 0  0.9751573703656133 0.327632618473408 0  2.148922302309752 0.1258841779285271 0  0.9281250000000001 0.3643758685795699 0  1.621993280276081 0.2841214267927899 0  1.550118654119087 0.2461998729100966 0  1.327182649291491 0.1216967252533594 0  0.9939955742738924 0.04663549843168518 0  1.753125 0.04556020050186112 0  1.271875 0.04556020050186116 0  0.9734326767716519 0.1506854560854393 0  0.103125 0.3675775577080512 0  1.94956388244759 0.1180512551534177 0  1.949997712993411 0.04965831614304109 0  0.717433898748555 0.295596016333797 0  1.771961817615021 0.1530278789497521 0  1.909246823951428 0.2812757146784527 0  0 0.35875 0  1.050632804931928 0.1226269704412814 0  0.05695108326502596 0.2024009637347154 0  1.948575539857022 0.2445328248721197 0  1.697271520964565 0.1233917627620729 0  1.065625 0.3689344961371042 0  1.085849084308977 0.3170853572226867 0  0.1015495998772944 0.04226029099983852 0  1.577403511714593 0.05463601888079143 0  1.751571320346033 0.3651102912045228 0  2.2 0.35875 0  0.7441773632462837 0.1786786606458751 0  0 0.05125 0  1.466879772203159 0.3611261772912453 0  0.6282230348858767 0.3577675483994025 0  1.990280163552011 0.3564754268533217 0  1.17471064520912 0.2990917256188288 0  0 0.25625 0  2.2 0.25625 0  2.2 0.05125 0  0 0.15375 0  1.853978576207987 0.35875 0  1.515638456102889 0.2882700110184686 0  2.150453692751374 0.2387066338105111 0  1.323782677156475 0.04897634338873398 0  1.409375 0.03715320121951221 0  1.406484531114799 0.1087852750766809 0  1.134375 0.03715320121951219 0  0.721875 0.3729363922161693 0  0.7941695928236929 0.3696489254637395 0  0.7934827162619036 0.3013409431456604 0  1.627401732573545 0.04552157221025036 0  0.9352049974617431 0.2507047965699472 0  0.8763260682738339 0.3611103317460093 0  2.045405893604797 0.1105340662939892 0  1.255408269734577 0.1577307500159216 0  2.028125 0.03707597992059326 0  1.003030137506755 0.3689344961371042 0  1.248258025468107 0.2565907092181813 0  1.203125 0.03661323374043041 0  0.4800125512335631 0.0549472816999725 0  2.072662025974815 0.2975086504196739 0  0.240625 0.3729825336867542 0  1.113252391110535 0.10238286244357 0  1.071052763974265 0.1885202618768825 0  0.8738809401657862 0.3106483608284829 0  0.6786819423003397 0.2677558482644021 0  1.887722846421017 0.1760882698830035 0  1.472640588990488 0.1118278026240017 0  0.5843750000000001 0.41 0  1.865937103925594 0.2604137786483804 0  1.463913572748262 0.2030442564990043 0  1.376426316059077 0.3186741374914345 0  0.1038643885363755 0.2162701735320032 0  0.1769473813227781 0.1070849728467114 0  0.458787839809176 0.171541653775316 0  0.240625 0 0  0.04179569703428024 0.2877217852556549 0  0.1258346557601885 0.2699740073054968 0  1.722140693354707 0.282908100935778 0  0.41206179117512 0.2448172567039922 0  0.3702471778075604 0.2265217604228704 0  0.3714881805374215 0.1786967818665642 0  1.77397096061971 0.2481483237422926 0  2.105123889160691 0.03743885948498647 0  1.001138337938679 0.229719337663998 0  1.051242910646791 0.2854826559431138 0  1.395420985247586 0.18
[...]
<PointData  Scalars="f_43"> 
<DataArray  type="Float64"  Name="f_43"  format="ascii">1.0797900027356051e-01  2.0437781160996144e-01  2.4485410100510520e-11  8.8224007450120437e-11  8.0425582939701271e-02  8.3580014171312375e-02  7.0177347689731800e-02  6.6447623815152207e-02  1.3687527867603455e-01  1.3841692002604919e-01  8.9310425023287787e-02  7.1186500750782519e-02  -4.6741622136702412e-03  -3.4736809462031048e-03  -7.3338742129159511e-03  -1.4304726010393105e-02  3.5375919885438332e-02  -6.3185637931182630e-03  -2.1126049146539309e-02  8.7339713162652349e-02  1.5897961146471909e-01  1.5175388120821398e-01  7.4035155698607788e-02  1.5457320179929842e-02  -1.9637671427002859e-02  -3.4013381065706748e-02  -2.4792578644569789e-02  -1.1104111726349444e-02  -2.5401816058067614e-03  1.1812380822388849e-01  2.7596522804304957e-03  5.7701663106327662e-02  4.7397589055700247e-02  1.0123688143525697e-01  -1.0718751618840571e-03  9.2831655755524919e-02  4.7517821601344263e-04  -3.1800916049437864e-03  3.3838208048667696e-03  6.6262996611340854e-03  7.1739617612703718e-03  1.2646405152066408e-02  1.3462919113386949e-03  3.2714218715686780e-03  3.6593732795158315e-03  6.3138562422161513e-03  5.2037959390393409e-03  1.6678869319712332e-03  -5.8391875111644227e-04  4.6456520015104804e-11  2.6100933794188817e-03  8.0401616183930338e-02  1.6811398832459181e-03  1.7822268307757408e-03  1.2674596769323381e-10  5.5829562359359947e-03  8.6028006242897925e-03  1.1490605831466971e-02  4.8282796613391236e-03  4.2374901861438937e-03  1.5414201655598650e-03  1.0640663573112560e-01  1.1390180259400134e-01  1.0695288390841252e-01  7.9500953919781261e-03  -7.1474034924785454e-04  2.3811373711565649e-03  -2.9101822421087067e-03  2.5797114516174385e-03  6.9097618244301348e-03  1.5607070223261999e-03  9.1392520287925313e-02  9.9483544682193198e-02  6.5824400211188386e-03  1.3399542293659054e-03  1.6915658891420806e-03  9.7180854026295872e-04  3.6801787562574361e-03  1.3303705334152525e-03  4.5927094090013028e-03  1.0876437370494330e-01  1.2857801576219682e-01  1.2821747346377179e-03  7.1860996045036596e-02  2.5034996237734545e-03  2.0124568808497110e-03  5.5973999134645534e-03  2.6054743309615997e-03  3.1555796379127195e-03  5.3644208726916758e-03  2.6062149978739609e-03  2.1636279720318816e-03  -5.3750131285516345e-04  6.5085576545970440e-11  3.1317109676659211e-03  9.7559658877953911e-03  1.2832749699059051e-02  -2.7629408206769780e-03  1.3893469287896774e-03  -3.8680875996955472e-04  3.8340397193340446e-03  2.3474951245330798e-02  5.7881721513391117e-03  2.3999793888481667e-04  3.9026856831160263e-03  1.1331373681867925e-01  9.0262092579153214e-02  1.2859295177043170e-01  1.0513476791786758e-01  1.7722782094660612e-03  8.8882519024826136e-04  -2.9691077888099873e-03  1.0420752901746362e-03  8.4745080153755901e-04  1.2797046621172359e-01  1.7911139865954251e-03  6.7034640715921160e-03  8.6784977183214249e-02  9.5188783463890536e-02  3.4039243157409763e-02  4.3489354973152801e-03  1.2085889537819705e-01  6.3461929079492718e-03  1.0836650007715694e-01  2.9035160931267143e-03  2.1006430561478304e-03  2.5259227667072935e-03  1.0276617509220830e-01  -2.8233792292580236e-03  9.6340820504434516e-02  1.4992115608693725e-03  8.0969857720123394e-04  -2.9921313903426478e-04  9.3941743128028721e-03  1.1304508217847616e-02  8.3617392276082066e-03  -2.1473861509280455e-03  5.9012281642893795e-03  -2.6309712452771607e-03  3.3467011265095139e-03  6.6104426109197013e-03  -3.0178111460553423e-03  1.1696001134252869e-01  2.5377195965074577e-04  -2.9174573889726509e-04  5.5428774259086379e-04  8.5233585006580168e-02  8.8815165983362018e-02  8.7386541873166093e-02  1.0088126852201455e-01  9.1427471166322435e-03  1.0646535045766189e-01  1.8394110466426190e-03  1.0830558639551444e-01  1.0532470787198704e-01  5.9494779105204194e-03  6.5099857247390260e-03  4.5138617375355509e-03  4.0298508941245615e-03  1.3282838544674829e-02  2.2611810484119855e-03  4.6354060718509877e-03  8.8244981970392680e-04  1.8445713320580010e-03  6.8337475321462574e-02  -1.6196724461318022e-03  2.2602104911663605e-03  -1.7197013649609895e-03  5.8020553596170909e-03  2.4926189312647578e-03  2.7047937316471531e-03  -8.5908775983909702e-05  1.5877584357244471e-03  3.4793646731085268e-03  6.4691243858512604e-03  8.7475518062907931e-02  1.0137451554287201e-01  1.2852457461439784e-01  7.9401359056050565e-04  6.5533898716222394e-03  2.2406522859897207e-03  1.3542393969810172e-03  8.8724305351658419e-04  1.7499226756264828e-03  2.3080172778811386e-03  3.1888434462038510e-03  3.6020767804435232e-03  1.5993545468625848e-03  8.1029945774203818e-02  -1.8820145903380230e-03  2.6401807100101186e-03  8.9115332073403816e-02  8.0017356968218861e-03  6.0407531497160020e-03  4.1720900243322982e-03  2.1252995127332675e-03  4.0352595449122848e-03  7.8993657823177299e-03  5.2040240205298064e-04  5.3546393087301148e-03  5.0144081944272561e-03  3.9239581621934539e-03  -2.0402637064424510e-03  1.1804110676563666e-01  1.0613771217925450e-01  3.4060099944596377e-03  -1.2901382705743244e-03  2.5200887606186277e-03  1.0627726867690127e-01  3.5096695289030628e-03  1.3182587298700180e-03  4.5796081901816235e-02  5.8221402239429204e-02  9.2587899608812613e-02  4.4505826965113649e-03  7.0006710863511302e-04  -1.1155113992073108e-10  2.5362582761485368e-03  1.0332565383714468e-01  5.7192662364224248e-03  7.5232093636232442e-02  8.6630916469460514e-02  9.4934547284152657e-03  1.1724465624668988e-02  -8.0028457195977724e-04  2.9204111721318930e-05  -4.0179345840595558e-03  2.2699778465346977e-03  6.3667409234374674e-04  1.7096521710895779e-03  6.5027054045552471e-03  5.6482298725955317e-03  6.7140055574163712e-03  -7.9621783513771961e-04  5.3002850633033904e-03  4.3785528480920792e-03  5.2645939623100749e-04  1.0750817478648543e-01  3.0363518200195302e-03  2.9923975783424277e-03  -2.9283797213413496e-03  5.1879134469022684e-03  3.8130898447870194e-03  1.0781649735563978e-01  -1.5843789684079385e-03  1.2078472681680273e-01  3.2278513755804972e-03  6.1617932972840954e-03  2.9614853101646928e-03  2.7702460896500700e-03  1.2268745965006769e-01  9.3562935550070246e-03  6.0078610270566466e-03  8.8224007450120437e-11  -2.3757410769968549e-03  1.3729294551593307e-01  2.5575859498484172e-03  1.7117508580399888e-02  2.7509545874905314e-03  2.7609829552249277e-03  1.1219631249282037e-01  4.6456520015104804e-11  2.4485410100510520e-11  1.2382355950445655e-01  4.6633971041176335e-03  3.9746160900596007e-03  6.2712791699721297e-04  8.8067498727041633e-03  1.3050426709350627e-02  1.1633527413208529e-02  -2.4022190381508450e-03  4.4276364997128089e-03  1.5095361326961038e-03  8.8739746993643260e-04  7.8460349667134350e-03  2.3641276039529551e-03  1.3834854903823071e-03  1.9008977319882312e-03  -3.2701824983580069e-04  2.0903749648020337e-03  2.3985751380747964e-03  1.7873055531336664e-03  -4.3858557043668000e-04  1.0954560837316447e-01  1.6374668297567589e-03  9.5942009621539218e-02  -3.2289214736580803e-03  -1.3924989233672579e-03  1.9486421224736443e-03  -1.0689188091440975e-02  3.8614998338398617e-03  1.1459928200085514e-02  3.4926891423870884e-02  4.3678997798660387e-03  5.9788317095073552e-03  1.0996076432398651e-03  1.2374219381977843e-01  1.0727895393779943e-01  1.1622233614901176e-01  1.0234108404470915e-01  1.1000805963235237e-01  1.0625785889236661e-01  6.2627195366090835e-03  9.1740693395482395e-02  9.1829562814151527e-02  9.2857156090306772e-02  5.5544745806072300e-03  1.1659246674269260e-03  1.1525354491275703e-03  1.5627601653012098e-03  6.4155913102816502e-03  2.2406087100182086e-03  8.2837166611103588e-02  7.7808308286413802e-03  1.2744638468277547e-01  1.3226479771417249e-01  1.9334844514625456e-03  1.4974014258308098e-03  9.2934343731937499e-02  5.2048291653458492e-03  2.6939036624002068e-03  8.9323654232995514e-02  8.4564070326390461e-02  8.5895200603483754e-02  4.7821491071204459e-04  1.3303703844576695e-03  1.6118363038276362e-03  1.5162208702769672e-03  1.6948740905345095e-04  6.4194907574030785e-03  9.9304759932572640e-03  4.8158385774531237e-03  3.9089533515670960e-02  1.4095603207273474e-01  1.0788480217589928e-01  2.5163768305678539e-03  2.4723104533299995e-03  -5.6320850767831014e-04  8.9582608130328006e-02  9.1486625425004908e-02  -2.9495895591059060e-03  1.2596170505724792e-02  6.8983766485581034e-03  5.2083447694230844e-03  -1.5166970610019340e-03  6.4187698663403471e-03  6.0178819425029621e-03  5.0183032526408399e-04  5.2116553302515524e-04  1.3063122232610130e-01  1.3342373021236012e-01  1.0800377132267176e-01  1.1376215143912968e-01  -6.2150289879991103e-04  -2.2288650732746261e-04  6.6437592355602197e-03  4.7167974414424269e-03  3.9323767051957313e-03  8.9145444420261011e-02  8.1896593596188408e-02  1.0127945313993571e-01  1.0305469780399373e-02  3.3578670095998071e-03  2.2387692923545931e-03  1.3772601576927740e-01  4.3896105964916834e-04  5.1197266938082537e-03  6.1736218497306840e-03  6.5557493140517191e-03  1.0959362696106444e-01  1.7807782619318263e-03  9.7128787267481337e-02  8.7183421787715321e-02  6.6702838951565773e-03  3.0024937363173241e-03  8.9842601490903867e-02  1.3238771455458208e-03  1.2739375103113952e-02  2.3521901381275052e-03  1.0307250651650285e-01  6.2208389595163130e-03  -7.6362978371389439e-04  1.0811153116438542e-01  1.0159037918834189e-01  7.8113508418919037e-02  -4.4514687805278239e-04  -1.3459833704707427e-04  -9.1932072856106017e-04  -3.5629157706284177e-03  4.8986005201263135e-04  1.2809836063017702e-01  1.8886865365356047e-03  8.0260072043064096e-02  9.6442013517012676e-02  4.7748511004863492e-06  -4.1854352641535466e-03  2.5451024160532310e-03  5.3823735899920774e-02  4.1457458422172232e-03  9.6790791985230940e-02  4.0209960544402255e-03  3.6503183567608592e-03  3.2470806525553477e-03  8.7211310435912529e-02  1.0911920702175731e-02  2.9468446561787648e-04  5.9082198855137076e-03  -1.3411314100436195e-03  -2.3006760765263124e-03  6.8829399946771933e-03  7.0189068524288195e-03  8.5963430308527169e-02  1.1540509688368600e-01  2.1225351140420410e-03  9.7763729390042634e-03  8.7983256206075833e-02  1.9338528648180384e-03  1.2443890599441333e-01  4.9569026238285496e-03  -1.2940990070973910e-03  -3.0824372678935823e-03  2.3682640554166166e-02  7.9508572521722661e-03  -1.0519599811672836e-02  2.0423899577822059e-03  2.0303829141731424e-03  4.5452955827738530e-03  1.0819101486202233e-01  1.6237173426144800e-03  1.1727561047217450e-03  1.9666001968712487e-03  1.4096131097270136e-04  1.0978592330748264e-02  -2.2516212150102796e-03  -1.0077846416612585e-03  -1.8032059341268210e-03  -7.5149699690382668e-05  5.6871042762639936e-03  1.4651246845134001e-03  5.6485423027647407e-03  3.1357419185772911e-03  1.0097057432685444e-02  1.1452231344093520e-02  6.3388357871355487e-03  6.1652014063140696e-03  2.7856914718766873e-03  8.3713173992702006e-02  -7.5545593458207333e-04  -3.0445597378755567e-03  6.2210882131716544e-03  6.6178770945112143e-03  8.2076995316841166e-04  3.7972245861316256e-04  6.4130112034289609e-03  7.2520746321289992e-03  4.5450221451619598e-03  8.0897923542471703e-02  8.3855743202574051e-02  2.1628714453195905e-03  4.4180063596986965e-03  8.8095388464036986e-02  1.7412686488591923e-03  2.1960157975272395e-03  6.6201674658218366e-03  1.1681516360196919e-03  2.5076058200008346e-03  -1.5632092318697355e-03  1.0478577220465754e-03  4.6247482293038935e-04  5.7686065338369763e-03  1.0439932027376742e-02  -1.3124007992583908e-04  -5.8652699640508689e-04  7.5680194119442229e-04  -2.2707465747331157e-04  1.3262155185026392e-01  1.0909854708523577e-01  1.2699078559097101e-02  3.3031705854683420e-03  1.0361639992250844e-01  -4.1240402510629402e-03  4.3753025068219526e-04  9.9151981241296281e-04  3.0667667642164543e-03  1.1778929032737080e-03  -1.3577707714018186e-03  4.0943478291677838e-03  4.8865015993637831e-03  -1.6838042871727080e-03  1.8158462473226054e-03  -7.0914358220227078e-03  2.0950934158988369e-02  -3.1388982795042125e-04  2.2031537395267274e-03  1.2570264412484554e-03  3.3003639402120312e-03  2.8918293275612531e-03  2.0330696025772556e-03  1.4540143023111731e-03  1.3658516654199157e-03  3.0373252512847721e-03  9.4358998718081163e-02  1.0383263056246961e-01  7.1025113286884893e-03  9.7477892849288288e-04  2.8118248496272198e-03  4.2374733243931532e-03  -2.5298707237208398e-03  1.8886810419437860e-03  1.8698909086221516e-03  1.1074468623597162e-03  6.5694482845863973e-03  2.5791524334367920e-03  2.1385684130359834e-03  -1.4499437150290527e-03  3.1141960603059014e-03  2.2239035495829895e-03  3.1667697545357467e-03  1.0004957910486424e-01  1.0611894851512241e-01  -1.7479943471976384e-03  1.0967560196375948e-02  4.2631702705803209e-04  1.2642854741355752e-03  3.9906759331382047e-03  -2.4995028529151303e-03  1.3447223143069431e-02  3.1880186464618562e-03  6.0093500374482920e-03  2.5486245566292186e-03  5.2791411288676997e-03  1.1516301016037350e-03  1.6079330194758588e-03  4.4180875741122968e-04  1.0751304834072738e-01  7.5552866493551529e-02  1.0458228817522332e-01  9.6709488898918478e-02  1.1786504250776100e-01  1.0818597183722195e-01  1.0459539311589884e-01  1.0816577455219537e-01  5.4147045597465024e-04  8.3196843430878326e-04  5.9064539033974441e-02  1.4194625564731458e-02  2.4665561820220684e-03  -7.6892428494820323e-05  1.9097152166410031e-03  8.0850136048000038e-03  2.8855887467119294e-03  5.3250796195992685e-03  -1.1623443508018410e-03  2.0907629182145139e-03  3.1764858797810559e-03  -4.1011866637178355e-04  6.3230798379437870e-03  9.1076778144596318e-02  7.1312843221108604e-02  4.9589669953024655e-02  -2.7423500266448415e-03  2.3184999749975644e-03  1.2520696485019733e-01  1.1385041854465193e-02  -3.9029693430817232e-03  1.4115113267248887e-03  2.8496583157633714e-02  9.0113929945306787e-02  2.5982675445016309e-03  2.1830778396915093e-03  8.1759830655701610e-02  3.5106738383077984e-03  4.6725760955286678e-03  3.1454250027380141e-03  3.4604272267381897e-03  1.7006905288049648e-03  1.8223336235427751e-03  6.3845507974328846e-03  4.0903968005652491e-03  8.5721940947960278e-04  6.1855367368043365e-03  4.3933525492401027e-03  6.5757538647084821e-03  3.1423828139939165e-03  3.6156759838193897e-03  3.5390533121376524e-03  8.6905563692702414e-03  1.6925779135236077e-03  1.3911832207077943e-03  1.0089020501383536e-01  6.7639172964841135e-02  1.9239819911029436e-03  -8.4880210180632082e-04  6.2391059560139798e-03  3.1238819225469778e-03  3.4652991484988203e-03  3.4995139304868157e-03  1.4681945111082316e-03  -2.5815648409459077e-03  2.0698111405105901e-03  5.3481658877146581e-03  1.0251117367068312e-01  4.9352464350980035e-03  6.5054388476477936e-03  4.6052628785094914e-03  2.8762906239890871e-03  1.0719146851316926e-01  4.0217809581437331e-04  -5.1131729726503584e-05  8.6422520462708444e-03  8.4411912274810763e-02  -2.1652651863868628e-02  9.0151144295632889e-03  7.3747648682875311e-03  3.9026554497833842e-03  1.2765630979677967e-01  5.4519740822670335e-03  -2.2736783474496748e-03  6.0526385352411222e-03  2.6073316617624626e-03  1.0666256645730401e-01  1.1329674709631442e-01  7.5874442532157865e-03  9.0483516873497566e-03  1.3208418133899880e-01  1.0769416372914009e-01  4.3900706952724562e-03  2.1095555901907326e-03  3.4257897008919485e-03  -1.8499535567208802e-03  2.6273660557490711e-03  9.7965582961708868e-03  4.9948550944979367e-03  3.3806861085824333e-03  5.9412728131267170e-03  1.1275235807675288e-01  9.9766899832379380e-02  -3.5427497880543700e-03  1.0810245381280630e-03  2.1665138296532841e-03  -1.2429520757369561e-03  6.6325974679921742e-03  1.2408368788985248e-02  1.0027987499604500e-02  5.4003937185452319e-03  4.8297569037276510e-03  1.3424806100000893e-03  1.1979060518714770e-02  2.9717744050339104e-03  1.5774251563172279e-01  1.0788849948672853e-01  8.9753503282285364e-03  3.5886388365939004e-03  -5.1185687248802856e-03  1.0133415825533794e-01  2.4319438669096194e-03  5.0013264336084247e-03  1.0949600646197979e-01  8.3503682484708033e-02  2.6803711602167257e-03  1.0988517155128188e-01  8.8817701445481359e-02  1.5664036018476766e-03  -8.7235102545187970e-03  1.5976559737327121e-02  5.0501328038103296e-02  1.9714800527355267e-03  4.8756427714761619e-03  8.0664600735101384e-04  1.2327514326171669e-03  1.2052118514525451e-01  4.3613905594534963e-03  4.2239544404418065e-04  7.4161052685917253e-03  4.2483730723136062e-03  4.6456520015104804e-11  9.0162249306267581e-02  2.3227326940053342e-03  2.6545536787011244e-03  -1.2704359044930320e-03  2.0578061395842063e-03  6.6300311728811172e-03  1.0956986436545886e-01  1.2473633766157075e-01  4.3914260158979648e-04  1.7376612547317729e-03  8.5841498272996516e-02  9.9471893119780136e-02  1.2189699026941228e-01  3.9448151741026220e-03  4.1720610749147527e-03  3.9668330847086215e-03  2.6394656839072153e-03  4.9411687434171361e-03  1.3141744712028161e-02  4.4216754959610595e-03  1.6384276006794379e-03  1.1365031083804855e-01  1.4762176096147479e-03  2.2404369507245951e-03  2.2969535983082866e-03  4.6631991536287644e-02  9.0394324008138349e-02  8.2253683483025114e-02  4.0840190890470860e-03  1.1210199991657922e-01  1.4640963962206158e-02  6.2831878988191224e-03  -4.8455614770603244e-03  -5.8389424887342952e-04  -1.9221329043348905e-04  -2.1200100141892391e-03  6.5085576545970440e-11  1.3388018308557140e-01  8.7674011260274992e-02  2.6917712856093417e-03  2.2622227195056880e-03  2.1492083392302291e-03  2.3456518767237429e-03  5.6400917267069063e-03  1.0235829703725137e-01  9.2868851182764792e-02  1.6151556831476673e-02  3.1866101220681320e-03  6.3986299440814326e-02  -1.0483916528540096e-03  2.5166980008506068e-03  9.6507663431202474e-03  6.5909828969061513e-03  3.0863774360119150e-02  7.4605207348550874e-03  4.4936398864898466e-03  5.7869581666330988e-03  8.1052974411804089e-04  8.8650734535696690e-04  3.6992634941938391e-04  8.0125872930544642e-02  5.3080802400074005e-02  4.2099332241026487e-03  2.7834140187309414e-03  -5.7879622850595912e-03  1.2859193310364554e-03  7.1216265122782361e-03  5.5567925410847461e-03  5.0094773279936071e-03  1.1647469042746986e-01  8.3896896721250488e-03  -3.8677701388593580e-03  -3.6665326664336250e-03  1.0796385350708834e-01  4.6782918117320603e-03  8.3612719677990902e-02  -2.6539588262323183e-03  1.0298085467926466e-01  3.3565774005770476e-03  4.7508033558274158e-03  1.4070644412893089e-03  8.9253748284140996e-02  -7.6533729148714447e-04  -7.9617127493597278e-04  4.6456520015104804e-11  2.4527866724669634e-03  2.1351843022985018e-03  5.7137430690398340e-03  6.2272116303717668e-03  9.0199058825813055e-02  8.7857135758313151e-02  3.3671687136275778e-03  -2.0434188966455451e-04  3.1705019719266408e-03  1.3973040623172768e-03  5.6592333762996742e-03  5.6249331541179688e-03  6.2822093277925851e-03  7.3925021835487617e-02  1.4206664813143134e-03  -1.7178029125776561e-03  -1.9546852362523634e-03  7.2583766467557067e-03  3.0883590986122201e-03  2.1918995501531593e-03  2.5160414833681139e-03  4.8162387135526350e-03  5.6782315211474444e-03  3.2964857374810242e-03  3.1519232775538935e-03  1.0026783847310608e-01  1.1014069695996463e-01  6.2576922605857210e-03  1.1700789939617559e-01  1.0612613909881281e-01  5.2768715100147559e-03  1.1868049689722237e-03  -9.9946064320380641e-05  -4.1761425137844851e-04  3.1094973419723716e-03  8.0258189059699038e-04  1.4109950413734756e-03  7.7635284578803782e-02  3.9229488993451902e-03  2.8738759425682536e-03  -1.9528885887185226e-03  8.1267496234920508e-02  -1.0925988077606428e-03  6.3975226812806527e-03  -2.0422724196793225e-03  1.1951669272579973e-01  1.0847141915123233e-01  6.1571995191027542e-03  2.4594771271941474e-03  8.1164252144238901e-03  8.5121525473603257e-03  1.2330847702146134e-02  1.0782392742721099e-01  5.5341564236765202e-03  9.2803787057054679e-02  4.8277571964534787e-03  6.9765173254019319e-02  8.4068141180221128e-04  4.8360639979631651e-03  6.4937834471434216e-03  1.0701122615513284e-01  1.9837501721157941e-03  2.6027629909793140e-03  2.3830958942082231e-03  