<?xml version="1.0"?>
<VTKFile type="UnstructuredGrid"  version="0.1"  >
<UnstructuredGrid>
<Piece  NumberOfPoints="1404" NumberOfCells="2604">
<Points>
<DataArray  type="Float64"  NumberOfComponents="3"  format="ascii">0 0.41 0  0 0 0  2.2 0 0  2.2 0.41 0  0.2353553390593274 0.2353553390593274 0  0.25 0.2 0  0.2353553390593274 0.1646446609406726 0  0.2 0.15 0  0.1646446609406726 0.1646446609406726 0  0.15 0.2 0  0.1646446609406726 0.2353553390593274 0  0.2 0.25 0  0.6923879532511287 0.188268343236509 0  0.7 0.15 0  0.6923879532511287 0.1117316567634909 0  0.6707106781186547 0.07928932188134523 0  0.6382683432365089 0.05761204674887133 0  0.6 0.04999999999999999 0  0.5617316567634909 0.05761204674887134 0  0.5292893218813453 0.07928932188134524 0  0.5076120467488713 0.111731656763491 0  0.5 0.15 0  0.5076120467488713 0.188268343236509 0  0.5292893218813453 0.2207106781186547 0  0.561731656763491 0.2423879532511287 0  0.6 0.25 0  0.6382683432365089 0.2423879532511287 0  0.6707106781186547 0.2207106781186547 0  1.1 0 0  0 0.205 0  1.1 0.41 0  0.55 0 0  0.55 0.41 0  0.275 0 0  0.8250000000000001 0 0  0.275 0.41 0  0.8250000000000001 0.41 0  0.6875 0 0  0.61875 0 0  1.65 0.41 0  1.65 0 0  1.375 0 0  1.375 0.41 0  1.925 0 0  1.925 0.41 0  1.5125 0.205 0  1.7875 0.205 0  0.9625000000000001 0.205 0  1.2375 0.205 0  2.2 0.205 0  1.99375 0.2152743902439024 0  0.4125 0.41 0  2.0625 0 0  2.0625 0.41 0  2.2 0.3075 0  1.7875 0.41 0  1.375 0.1486128048780488 0  1.5125 0 0  1.7875 0 0  1.5125 0.41 0  0.9625000000000001 0.41 0  0.4125 0 0  0.1375 0 0  0.1375 0.41 0  0.6875 0.41 0  0.9625000000000001 0 0  1.2375 0 0  1.1 0.1486128048780488 0  1.2375 0.41 0  1.65 0.1486128048780487 0  0.823495464168302 0.2603780552348366 0  0.3738707794507017 0.2720196349488618 0  0.3662291281331582 0.1311456406657909 0  1.676715909090909 0.2793064024390244 0  1.126715909090909 0.2793064024390244 0  1.348284090909091 0.2793064024390244 0  0.8287581077665108 0.1302150898054257 0  1.894702181800738 0.1282910975492754 0  2.092797818199262 0.1282910975492754 0  1.85625 0.3075 0  0 0.3075 0  0 0.1025 0  2.099172119769978 0.25625 0  0.4752414543992246 0.3180372603390748 0  1.99375 0.08395950269330846 0  1.459960956013612 0.3075 0  1.569025960719943 0.2986889805672169 0  1.03125 0.3278689922742084 0  1.959375 0.3126371951219512 0  1.749222215368287 0.1025 0  1.275777784631713 0.1025 0  0.9228016959331474 0.3075 0  1.000777784631713 0.1025 0  2.2 0.1025 0  1.225938124459196 0.3075 0  1.550777784631713 0.1025 0  1.44375 0.07430640243902442 0  1.16875 0.07430640243902439 0  0.7562500000000001 0.3358727844323386 0  0.89375 0 0  1.899250267340833 0.2229966846119207 0  0.61875 0.41 0  1.766482954545455 0.2934032012195123 0  1.046078563095834 0.2389031808701145 0  1.421109702350723 0.2261157654379721 0  0.07567171807980319 0.25625 0  0.2511897295290552 0.3235829392832554 0  0.07655002503762308 0.1488653460959645 0  0.1377245246847496 0.3206030474919778 0  0.6694099692696568 0.3242771941727899 0  0.9168971191497528 0.1295727156104653 0  0.7562500000000001 0 0  2.118919042110979 0.3422084711244843 0  2.13125 0 0  0.06875000000000001 0 0  1.30625 0.41 0  1.597888256393107 0.2173787389261347 0  0.34375 0.41 0  0.2493272016354703 0.08091360081773515 0  0.5588896233436766 0.3264056208677571 0  1.829299675393195 0.07400700849299596 0  0.1334079128307869 0.08523463035786674 0  1.71875 0.41 0  0.06875000000000001 0.41 0  1.16875 0.41 0  2.038220665644273 0.332420740103091 0  0.8810647413215221 0.2027360103977071 0  0.34375 0 0  0.7453891198966415 0.2471459041008237 0  0.42112093004955 0.1988123139090554 0  0.8314023090855964 0.3351170841770613 0  0.89375 0.41 0  0.7906250000000001 0.06615386481594063 0  1.452769549894695 0.1548122580621249 0  1.369219062229598 0.07430640243902442 0  1.30625 0 0  1.07420695807087 0.07430640243902439 0  1.720943423819132 0.1714577452753128 0  1.157188124459196 0.205 0  1.304056576180868 0.1714577452753128 0  1.67579304192913 0.07430640243902437 0  1.209670467133757 0.136210026696477 0  0.4312800784902823 0.08036147352247747 0  0.8723959680194693 0.07066860609690805 0  1.025335513626278 0.1700681449722324 0  0.7945632284247136 0.1940204203251442 0  0.378125 0.3452261501101892 0  0.3307109909790086 0.2037165635083759 0  0.3009701032039409 0.2702970083403109 0  0.20625 0.41 0  1.58125 0 0  0.4812500000000001 0 0  0.9838963872396855 0.2722244191167347 0  0.06772484939107212 0.3260067317374387 0  0.20625 0 0  1.58125 0.41 0  1.631724228912893 0.3381867502687533 0  1.825608881788174 0.14499488549201 0  1.85625 0 0  1.44375 0 0  1.44375 0.41 0  1.85625 0.41 0  2.13125 0.41 0  0.7562500000000001 0.41 0  0.4812500000000001 0.41 0  1.16875 0 0  1.03125 0.41 0  1.03125 0 0  1.71875 0 0  1.99375 0 0  1.99375 0.41 0  0.9408708167433545 0.0651989315768642 0  1.340625 0.3489494290853124 0  1.134375 0.3489494290853123 0  1.700180620188976 0.3438659752031281 0  0.29668452290037 0.1318471691375986 0  0.3175441051360096 0.06496934809856265 0  0.06509151636162461 0.08140814015999148 0  2.135782184673599 0.07126652247502523 0  1.668441847249787 0.2129203728327609 0  1.295782514339747 0.2378437748815763 0  1.409375 0.3520314716057996 0  2.129248544730567 0.1906135162504124 0  2.060771381434487 0.1989445750470348 0  2.013252586573865 0.1496169464686054 0  1.942766402200229 0.1734448904596831 0  1.895522487186454 0.06076163953489683 0  2.069553871656643 0.06605731020975725 0  0.4670911801404742 0.2498408582391372 0  0.7622743084658112 0.1264100838268133 0  1.274680914880868 0.3520219391081363 0  0.3148669572599245 0.3331753056385887 0  1.614713220494657 0.09473434380863296 0  1.72990325744076 0.2380068107952482 0  1.356580098625191 0.2120393231351682 0  2.034370752044885 0.2668681600792073 0  1.51768709249349 0.3426260931494756 0  1.561883724969884 0.1650446847858835 0  1.197344062229598 0.2523725417393646 0  1.804085235518364 0.3468178408964637 0  1.817887819205233 0.2589243285818559 0  1.905897727272727 0.3485060975609756 0  0.7296439733931823 0.06337466644369745 0  0.4250935971865949 0.1394919578475796 0  0.3773030136511669 0.05130372097998036 0  1.192836486056382 0.3562350748565544 0  1.1029124365364 0.226143510831178 0  1.28257088594801 0.2944411014911587 0  0.1905185804731426 0.06029880676029167 0  1.474860187679412 0.2504218616229368 0  1.406767003493824 0.2829282258560709 0  0.5209826960981064 0.2830664557824064 0  0.5131119502780163 0.3617405848213254 0  0.1948220106098172 0.3081993407644811 0  1.845656689180403 0.1998310418452388 0  2.144958525570388 0.2909790873294231 0  2.2 0.15375 0  0.8833025251326762 0.2625402923007629 0  0.171875 0.3653875762360952 0  1.57794966442982 0.3540357145964566 0  0.446875 0.366068291212731 0  0.4272051715206439 0.2891929346190664 0  1.508991196088596 0.1421783375065625 0  1.50436820029908 0.06143401634903343 0  1.223857000523521 0.08235548624535324 0  0.6137904613287555 0.3066826366281556 0  1.153316824384777 0.1289850171317838 0  0.9751573703656133 0.327632618473408 0  2.148922302309752 0.1258841779285271 0  0.9281250000000001 0.3643758685795699 0  1.621993280276081 0.2841214267927899 0  1.550118654119087 0.2461998729100966 0  1.327182649291491 0.1216967252533594 0  0.9939955742738924 0.04663549843168518 0  1.753125 0.04556020050186112 0  1.271875 0.04556020050186116 0  0.9734326767716519 0.1506854560854393 0  0.103125 0.3675775577080512 0  1.94956388244759 0.1180512551534177 0  1.949997712993411 0.04965831614304109 0  0.717433898748555 0.295596016333797 0  1.771961817615021 0.1530278789497521 0  1.909246823951428 0.2812757146784527 0  0 0.35875 0  1.050632804931928 0.1226269704412814 0  0.05695108326502596 0.2024009637347154 0  1.948575539857022 0.2445328248721197 0  1.697271520964565 0.1233917627620729 0  1.065625 0.3689344961371042 0  1.085849084308977 0.3170853572226867 0  0.1015495998772944 0.04226029099983852 0  1.577403511714593 0.05463601888079143 0  1.751571320346033 0.3651102912045228 0  2.2 0.35875 0  0.7441773632462837 0.1786786606458751 0  0 0.05125 0  1.466879772203159 0.3611261772912453 0  0.6282230348858767 0.3577675483994025 0  1.990280163552011 0.3564754268533217 0  1.17471064520912 0.2990917256188288 0  0 0.25625 0  2.2 0.25625 0  2.2 0.05125 0  0 0.15375 0  1.853978576207987 0.35875 0  1.515638456102889 0.2882700110184686 0  2.150453692751374 0.2387066338105111 0  1.323782677156475 0.04897634338873398 0  1.409375 0.03715320121951221 0  1.406484531114799 0.1087852750766809 0  1.134375 0.03715320121951219 0  0.721875 0.3729363922161693 0  0.7941695928236929 0.3696489254637395 0  0.7934827162619036 0.3013409431456604 0  1.627401732573545 0.04552157221025036 0  0.9352049974617431 0.2507047965699472 0  0.8763260682738339 0.3611103317460093 0  2.045405893604797 0.1105340662939892 0  1.255408269734577 0.1577307500159216 0  2.028125 0.03707597992059326 0  1.003030137506755 0.3689344961371042 0  1.248258025468107 0.2565907092181813 0  1.203125 0.03661323374043041 0  0.4800125512335631 0.0549472816999725 0  2.072662025974815 0.2975086504196739 0  0.240625 0.3729825336867542 0  1.113252391110535 0.10238286244357 0  1.071052763974265 0.1885202618768825 0  0.8738809401657862 0.3106483608284829 0  0.6786819423003397 0.2677558482644021 0  1.887722846421017 0.1760882698830035 0  1.472640588990488 0.1118278026240017 0  0.5843750000000001 0.41 0  1.865937103925594 0.2604137786483804 0  1.463913572748262 0.2030442564990043 0  1.376426316059077 0.3186741374914345 0  0.1038643885363755 0.2162701735320032 0  0.1769473813227781 0.1070849728467114 0  0.458787839809176 0.171541653775316 0  0.240625 0 0  0.04179569703428024 0.2877217852556549 0  0.1258346557601885 0.2699740073054968 0  1.722140693354707 0.282908100935778 0  0.41206179117512 0.2448172567039922 0  0.3702471778075604 0.2265217604228704 0  0.3714881805374215 0.1786967818665642 0  1.77397096061971 0.2481483237422926 0  2.105123889160691 0.03743885948498647 0  1.001138337938679 0.229719337663998 0  1.051242910646791 0.2854826559431138 0  1.395420985247586 0.18
[...]
<PointData  Vectors="f_37"> 
<DataArray  type="Float64"  Name="f_37"  NumberOfComponents="3" format="ascii">5.0356589191036049e-07 4.4471236744453308e-07 0.0000000000000000e+00  -3.9199076727366462e-06 -8.5220201701722831e-07 0.0000000000000000e+00  -1.2079837282544521e-06 4.9640156393213529e-09 0.0000000000000000e+00  -1.4817000985069349e-06 -4.5812157814786294e-09 0.0000000000000000e+00  4.7957418943210630e-06 -2.4087625703030431e-06 0.0000000000000000e+00  3.2281920413266808e-06 -2.4426774736479381e-06 0.0000000000000000e+00  -8.2055145512049966e-07 -2.2585711730518611e-06 0.0000000000000000e+00  -1.9402256091173248e-06 1.5788156849255967e-06 0.0000000000000000e+00  1.1383742501376007e-05 -3.2864672584595952e-06 0.0000000000000000e+00  -3.1558891893892135e-06 -7.1089011735999616e-06 0.0000000000000000e+00  -1.6786297134663884e-06 3.4123820207832197e-06 0.0000000000000000e+00  3.5827679332490525e-06 2.1059654822115390e-06 0.0000000000000000e+00  5.3222903815439074e-06 -5.5831392167657363e-06 0.0000000000000000e+00  2.5497751781811974e-06 3.0341044410405134e-07 0.0000000000000000e+00  1.5130196845862222e-06 2.0796614934499991e-06 0.0000000000000000e+00  5.1021732318887841e-06 1.4764203555592099e-06 0.0000000000000000e+00  6.9025888514127669e-06 -4.6608008933710652e-07 0.0000000000000000e+00  3.2535788121094672e-01 8.5641571057573265e-02 0.0000000000000000e+00  -2.3451233349147938e-06 -4.4073923381359813e-06 0.0000000000000000e+00  -8.4294071658252936e-06 -8.2339804333120155e-07 0.0000000000000000e+00  -2.1647764829775099e-06 1.5089809773785526e-07 0.0000000000000000e+00  2.6754659432771482e-06 7.2240469125439160e-06 0.0000000000000000e+00  5.6408755935807346e-06 4.3723403157217630e-06 0.0000000000000000e+00  3.5207068474728222e-06 -5.6647510359649000e-06 0.0000000000000000e+00  -5.1913301067648372e-06 -5.3532430262662909e-06 0.0000000000000000e+00  -9.5998874457985211e-06 -1.5645684278104033e-08 0.0000000000000000e+00  -8.7648461759343492e-06 3.2012525827844553e-06 0.0000000000000000e+00  5.1569781876782020e-06 -2.5636454073805672e-06 0.0000000000000000e+00  -1.2551478343880291e-06 3.0072195950464344e-08 0.0000000000000000e+00  1.6583314336558008e-01 -1.4475552374225645e-06 0.0000000000000000e+00  -1.5923280421028921e-06 -9.5436556953120750e-09 0.0000000000000000e+00  2.1234908029305550e-06 -4.1300203383404125e-06 0.0000000000000000e+00  -1.9801856658628405e-07 -4.9237055759060258e-07 0.0000000000000000e+00  1.6636229964507340e-06 -7.9359879024482912e-07 0.0000000000000000e+00  -1.5487247314664375e-06 -1.8478368709383881e-07 0.0000000000000000e+00  1.0298971277403099e-07 -1.8699683982309912e-07 0.0000000000000000e+00  -1.6068114375827628e-06 3.4028358594058710e-08 0.0000000000000000e+00  -3.5158228807218745e-07 -9.3454301760153232e-08 0.0000000000000000e+00  -3.0602071438347905e-06 -2.0821996573332923e-06 0.0000000000000000e+00  -1.6533458468266548e-06 7.3468762415493144e-10 0.0000000000000000e+00  -2.1826823931419791e-06 -4.6807979343131566e-09 0.0000000000000000e+00  -1.3864931788328081e-06 -3.9149679580364165e-09 0.0000000000000000e+00  -8.2946750712034669e-07 -2.9995059477590644e-09 0.0000000000000000e+00  -1.0825675405807353e-06 2.6277051980832525e-09 0.0000000000000000e+00  -4.2391343124894801e-07 -4.4994607767519391e-09 0.0000000000000000e+00  1.9149226458345231e-01 -1.1038728927831833e-04 0.0000000000000000e+00  1.9148598240858081e-01 -2.3395203863558790e-06 0.0000000000000000e+00  1.9172006543661244e-01 -3.0050048009283646e-02 0.0000000000000000e+00  1.9153540916520365e-01 -1.9095230196934378e-03 0.0000000000000000e+00  1.9149726449260035e-01 -2.0379344210112005e-05 0.0000000000000000e+00  1.9149328550358322e-01 -7.2067992877985545e-06 0.0000000000000000e+00  -4.0475166321882341e-07 -2.4313921771838818e-08 0.0000000000000000e+00  -3.5561093115496895e-07 5.4994168981056438e-09 0.0000000000000000e+00  -1.1293550340967579e-06 7.5759275066806907e-09 0.0000000000000000e+00  1.8973851991493454e-01 -3.1811841684833368e-06 0.0000000000000000e+00  -1.5016956218666439e-06 -2.3733706380977245e-09 0.0000000000000000e+00  1.9119177237569385e-01 -3.9122154072234665e-04 0.0000000000000000e+00  -2.0439849783584806e-06 1.9755770077931004e-09 0.0000000000000000e+00  -1.7917240726959742e-06 -1.2643369439049363e-09 0.0000000000000000e+00  -1.3061299253125843e-06 -4.5349892513916417e-09 0.0000000000000000e+00  -2.2071634242818851e-06 -4.0052105492079480e-08 0.0000000000000000e+00  -3.2929708386940617e-06 -5.5800209366938908e-08 0.0000000000000000e+00  3.5333226840884509e-07 2.8482897555908635e-07 0.0000000000000000e+00  -3.8250889519164696e-06 -2.5640302798012921e-07 0.0000000000000000e+00  -8.7885776112457065e-07 9.0694199412041320e-08 0.0000000000000000e+00  -1.8758358537970309e-06 1.0701650852684155e-07 0.0000000000000000e+00  4.1235277098316893e-07 -2.5347142058098088e-09 0.0000000000000000e+00  1.8770293189608800e-01 -6.6132566588250471e-03 0.0000000000000000e+00  -6.0140277136623605e-07 -3.5250144715242307e-09 0.0000000000000000e+00  1.9143962422895427e-01 -2.5988039331541624e-05 0.0000000000000000e+00  2.6501481491516105e-01 -1.1293148971154504e-01 0.0000000000000000e+00  1.6138903925392989e-01 3.5127279735702663e-02 0.0000000000000000e+00  2.4228153731666602e-01 1.0787609306840151e-01 0.0000000000000000e+00  1.9130843584352170e-01 -7.1816269419271481e-06 0.0000000000000000e+00  1.9527007643470926e-01 -4.0810869682555472e-03 0.0000000000000000e+00  1.9174074996620175e-01 -4.4157506903149275e-04 0.0000000000000000e+00  1.0243124049106693e-01 -3.1286664273374676e-02 0.0000000000000000e+00  1.9125784093558684e-01 1.6864675659750418e-05 0.0000000000000000e+00  1.9123780960453032e-01 -6.2662530201938688e-06 0.0000000000000000e+00  1.8976908555147126e-01 -9.7483252121771954e-07 0.0000000000000000e+00  7.5234772125703786e-02 2.1403911295666203e-06 0.0000000000000000e+00  2.7319286713343444e-01 -1.4154801048450751e-06 0.0000000000000000e+00  1.9147041019779679e-01 -1.3207824632090808e-05 0.0000000000000000e+00  2.8764250696437021e-01 7.7314337278083622e-02 0.0000000000000000e+00  1.8551747054827822e-01 -2.5737273464142326e-05 0.0000000000000000e+00  1.8989383638332594e-01 -6.2719060087285401e-05 0.0000000000000000e+00  1.9063151953253601e-01 -2.9703803813762340e-05 0.0000000000000000e+00  1.9677434063895699e-01 -4.6904749936557757e-03 0.0000000000000000e+00  1.8901976496835116e-01 -4.7113864145279222e-07 0.0000000000000000e+00  1.8977578492510816e-01 6.7868703376101837e-07 0.0000000000000000e+00  1.8866613214853278e-01 -6.9783806851031363e-04 0.0000000000000000e+00  2.2868926616984547e-01 -2.2240977871574762e-02 0.0000000000000000e+00  1.7437955960482157e-01 -1.1435050912773871e-02 0.0000000000000000e+00  1.8978743249884972e-01 -2.8084339440477354e-05 0.0000000000000000e+00  1.9147070320458551e-01 -1.0503963029752203e-03 0.0000000000000000e+00  1.8960415115118306e-01 -2.7617120307130848e-05 0.0000000000000000e+00  1.8059170050736703e-01 -4.9875937498701187e-05 0.0000000000000000e+00  1.7776235148429517e-01 -1.2753701079238984e-03 0.0000000000000000e+00  3.5535035182445340e-01 -6.6205224309385191e-02 0.0000000000000000e+00  -2.4399573590915820e-06 1.2655176000939183e-07 0.0000000000000000e+00  1.9150537833708772e-01 -2.4208955420255405e-07 0.0000000000000000e+00  6.1889231515900289e-08 -1.8793662352901607e-07 0.0000000000000000e+00  1.9080830650358363e-01 2.5197167433173350e-05 0.0000000000000000e+00  1.9629890856529464e-01 -1.2048058429349123e-02 0.0000000000000000e+00  1.9155962016422348e-01 -2.7078310743402687e-04 0.0000000000000000e+00  1.3051559109846231e-01 7.6652411293343034e-02 0.0000000000000000e+00  2.4422785236944319e-01 8.4123077649274770e-04 0.0000000000000000e+00  2.0828764972155744e-01 3.1506814877143144e-02 0.0000000000000000e+00  1.5180494072009398e-01 1.0386422432704184e-01 0.0000000000000000e+00  4.4327951686446093e-01 -5.0203899306164090e-02 0.0000000000000000e+00  1.6137474480470887e-01 -2.9224624257726775e-02 0.0000000000000000e+00  1.8543469346341340e-08 3.5786356377239125e-07 0.0000000000000000e+00  1.7600048403506749e-01 1.5656921891773793e-05 0.0000000000000000e+00  -2.4558001362570482e-06 -1.8001370222522546e-08 0.0000000000000000e+00  -5.1744096741652639e-08 -9.8528372174946364e-08 0.0000000000000000e+00  -5.5646603680963647e-07 -4.6990931657896689e-09 0.0000000000000000e+00  1.9149039416674102e-01 -3.7276163771021382e-05 0.0000000000000000e+00  -1.6198970709246183e-06 1.8890747981779885e-07 0.0000000000000000e+00  3.7765594526848012e-01 5.8923104069119520e-02 0.0000000000000000e+00  3.9579234188020307e-01 5.9024290772049695e-02 0.0000000000000000e+00  1.8061014460778166e-01 -2.1230612695744100e-05 0.0000000000000000e+00  3.4017041648591445e-01 2.2628063668926657e-02 0.0000000000000000e+00  -1.7270782496945047e-06 2.0635732293309141e-11 0.0000000000000000e+00  1.4649885507748227e-06 1.1577051301222361e-06 0.0000000000000000e+00  -1.0676816841739924e-06 -8.6829295389479616e-10 0.0000000000000000e+00  1.8266448278996994e-01 -2.0315379848904740e-06 0.0000000000000000e+00  1.8266787886230287e-01 -7.0779328684427059e-02 0.0000000000000000e+00  -1.6096985267041922e-06 7.7926678646625789e-08 0.0000000000000000e+00  2.4211998585548106e-01 -1.1812642633164333e-01 0.0000000000000000e+00  1.5035727380103944e-01 1.3367564610838495e-01 0.0000000000000000e+00  2.7177488557667007e-01 -3.6013909790196447e-02 0.0000000000000000e+00  -1.4515399886367799e-06 -1.7833513791915768e-07 0.0000000000000000e+00  1.3658560148376869e-01 2.9337792829493756e-02 0.0000000000000000e+00  1.9135760856715320e-01 -1.6768540265380488e-04 0.0000000000000000e+00  1.8035212929878433e-01 -1.3203377675070487e-04 0.0000000000000000e+00  -3.3781277727648282e-07 1.8651561437265405e-10 0.0000000000000000e+00  1.7295564711279104e-01 -3.5688834688047647e-03 0.0000000000000000e+00  1.9146967781504834e-01 -1.2399669433596623e-05 0.0000000000000000e+00  1.9162941230176708e-01 -4.2718753997033065e-03 0.0000000000000000e+00  1.9117308709329819e-01 -9.2849981128001718e-04 0.0000000000000000e+00  1.8072085640451754e-01 -2.1641196897301508e-05 0.0000000000000000e+00  1.8979315452459833e-01 -2.0106753202984045e-03 0.0000000000000000e+00  1.8852849678870970e-01 2.4572375543046648e-03 0.0000000000000000e+00  1.3626758231610567e-01 -1.0569048951324593e-02 0.0000000000000000e+00  1.8669553674325259e-01 -1.5024325617485229e-02 0.0000000000000000e+00  1.1101814087708693e-01 -1.0558747540428830e-01 0.0000000000000000e+00  2.2805310254024133e-01 1.4334443206174115e-02 0.0000000000000000e+00  6.5492411592770028e-02 7.5264761122599722e-02 0.0000000000000000e+00  1.1755788732745065e-01 -1.9538278340766005e-02 0.0000000000000000e+00  -2.1308451752632880e-06 -1.0051013081725067e-06 0.0000000000000000e+00  -1.0308858274154666e-06 -6.7023707157244355e-09 0.0000000000000000e+00  -4.2410704495633478e-06 3.7143784191566797e-07 0.0000000000000000e+00  2.0747527946771585e-01 -1.8496125928308259e-02 0.0000000000000000e+00  7.6294634177906814e-02 3.4405652109188285e-02 0.0000000000000000e+00  -1.5058608731928344e-06 4.0513695579656204e-08 0.0000000000000000e+00  -1.2800534806354914e-06 2.7088145454385358e-09 0.0000000000000000e+00  1.7916257152871889e-01 1.4060561922257512e-05 0.0000000000000000e+00  1.9140520167602940e-01 -1.1356921936917080e-07 0.0000000000000000e+00  -1.3507067502242397e-06 1.8226967430911937e-09 0.0000000000000000e+00  -1.6991753522721374e-06 3.7097118691371764e-09 0.0000000000000000e+00  -1.4993623219649247e-06 -4.6948289421297844e-09 0.0000000000000000e+00  -5.3453904824247981e-07 2.1958200645368865e-09 0.0000000000000000e+00  -5.4446359742622986e-07 -2.2472492466307757e-09 0.0000000000000000e+00  2.1382016671448747e-06 5.3660386432970378e-07 0.0000000000000000e+00  -2.7959781949129519e-06 -6.0627118505744366e-07 0.0000000000000000e+00  -1.0530813698287345e-06 5.3591143656173125e-09 0.0000000000000000e+00  -9.1400298263935092e-07 -3.6664806636402980e-08 0.0000000000000000e+00  -5.1975532778813593e-08 5.4832575887276507e-08 0.0000000000000000e+00  -2.5394476738283321e-07 -8.2729510843864103e-10 0.0000000000000000e+00  -1.7045304823814909e-06 5.3042810200833333e-09 0.0000000000000000e+00  -7.7977989451247997e-07 -2.9072310614829982e-09 0.0000000000000000e+00  1.4798145063995691e-01 -9.7569520435192812e-03 0.0000000000000000e+00  1.6995117424245118e-01 -1.0134691563803316e-04 0.0000000000000000e+00  1.7300554498150830e-01 -9.2981171848266649e-04 0.0000000000000000e+00  1.7462749684860518e-01 -7.1593069233777784e-07 0.0000000000000000e+00  2.9360894172629887e-01 1.0643899967577297e-01 0.0000000000000000e+00  2.8324782217462380e-01 4.3022378646001509e-02 0.0000000000000000e+00  3.1467191415154899e-01 3.0131258725928804e-02 0.0000000000000000e+00  1.7880547877959255e-01 -1.4102009077073379e-05 0.0000000000000000e+00  1.9148967531956976e-01 -1.2378664792505551e-05 0.0000000000000000e+00  1.9185306123008916e-01 -9.8959804773126984e-04 0.0000000000000000e+00  1.6604911730689403e-01 -1.0738818247638799e-05 0.0000000000000000e+00  1.9150487612417277e-01 -1.2970009667063788e-05 0.0000000000000000e+00  1.9149254156460338e-01 -1.4105266818779678e-05 0.0000000000000000e+00  1.9144275597582430e-01 -1.2076005094375130e-05 0.0000000000000000e+00  1.9148957013550064e-01 -3.5181172279364861e-06 0.0000000000000000e+00  1.6923377789658592e-01 -1.8861044754469581e-05 0.0000000000000000e+00  1.7448641204667226e-01 -8.5498614066441864e-06 0.0000000000000000e+00  2.2214226240296861e-01 1.5190556035671965e-01 0.0000000000000000e+00  2.2115190486644329e-02 8.5291073616674280e-03 0.0000000000000000e+00  1.6665928066305649e-01 -1.4765892687669294e-04 0.0000000000000000e+00  2.3371082575585739e-01 -1.0831922865997715e-02 0.0000000000000000e+00  1.8854970677553651e-01 -1.8393949474291099e-05 0.0000000000000000e+00  1.9148903731166303e-01 -5.5617551525649919e-06 0.0000000000000000e+00  1.9154189649254830e-01 -5.5676985303248843e-04 0.0000000000000000e+00  1.9144441273169679e-01 -4.5738579624435100e-06 0.0000000000000000e+00  1.7562770854275744e-01 -3.6966774967064854e-06 0.0000000000000000e+00  1.9146505694664995e-01 -5.5447112892382088e-05 0.0000000000000000e+00  1.9285159613705924e-01 -2.4955377360979789e-03 0.0000000000000000e+00  1.7172855240370893e-01 -1.8593663189540918e-05 0.0000000000000000e+00  1.9146212207682309e-01 -3.8734619659591956e-06 0.0000000000000000e+00  1.7002600694672987e-01 1.0457845775406115e-05 0.0000000000000000e+00  1.5828788939243243e-01 6.0016522184498558e-02 0.0000000000000000e+00  1.6324487136655089e-01 8.7264928523639665e-02 0.0000000000000000e+00  1.9405598988212350e-01 1.5267992796484438e-02 0.0000000000000000e+00  1.6198404929038859e-01 -3.5505051476072117e-04 0.0000000000000000e+00  1.9330437863618435e-01 -7.1007515466483921e-03 0.0000000000000000e+00  1.9174422541623051e-01 -7.2461713281640316e-04 0.0000000000000000e+00  3.7765132483715080e-01 2.7601603021168410e-02 0.0000000000000000e+00  1.9155142696285862e-01 -1.3221947119259548e-04 0.0000000000000000e+00  1.9145904356149521e-01 -2.1485480205041621e-04 0.0000000000000000e+00  3.4163020066951810e-01 1.4262754395616470e-01 0.0000000000000000e+00  3.0762110894686995e-01 3.2851425802434393e-02 0.0000000000000000e+00  2.3726170848858089e-01 7.6200289081898714e-02 0.0000000000000000e+00  1.9148895901382967e-01 5.6865994509423803e-06 0.0000000000000000e+00  1.9100630371183502e-01 -1.6982028016848506e-05 0.0000000000000000e+00  1.9149035518291671e-01 -1.6433027781211634e-05 0.0000000000000000e+00  2.3272813085003632e-01 -6.1823260564872792e-02 0.0000000000000000e+00  1.5705638855961696e-01 3.3436523358036568e-02 0.0000000000000000e+00  1.6332406478800102e-01 3.6477594511509324e-06 0.0000000000000000e+00  2.3689996982532477e-01 2.4945093211708839e-02 0.0000000000000000e+00  2.2317180399206279e-01 7.3159132707071819e-02 0.0000000000000000e+00  1.9133935292800650e-01 -7.7482074121655673e-05 0.0000000000000000e+00  1.6985267078849961e-01 -2.1666786787712237e-05 0.0000000000000000e+00  1.8303248255615417e-01 -8.5361012148700555e-04 0.0000000000000000e+00  4.5856360247119665e-01 1.3452601254483127e-02 0.0000000000000000e+00  1.8830049590606046e-01 -3.3958877392906098e-03 0.0000000000000000e+00  2.0608392971853060e-01 -8.0335481548421163e-03 0.0000000000000000e+00  1.9121243962016754e-01 -5.4097261280402019e-06 0.0000000000000000e+00  1.6481502485904126e-01 -2.6938840832973323e-03 0.0000000000000000e+00  1.9119612720385715e-01 -2.2400406621899430e-05 0.0000000000000000e+00  1.9150105755541197e-01 -6.3904510471025737e-05 0.0000000000000000e+00  1.9047655427237886e-01 -5.2043080371024896e-04 0.0000000000000000e+00  1.3518465648210118e-01 -3.7429649455239808e-03 0.0000000000000000e+00  1.4649361063080757e-01 -9.7140968181646564e-06 0.0000000000000000e+00  1.4589274840058933e-01 -1.3738572527107379e-04 0.0000000000000000e+00  1.7866302036167914e-01 -2.2339982557121336e-02 0.0000000000000000e+00  6.7811844962567147e-02 2.9288909941745933e-02 0.0000000000000000e+00  1.9086146813948240e-01 -5.0885357482295452e-06 0.0000000000000000e+00  1.5391308569609305e-01 6.4779771253356254e-06 0.0000000000000000e+00  4.0463994395146230e-01 -9.9628398631567527e-02 0.0000000000000000e+00  1.9144636896645581e-01 -4.2968537885505705e-06 0.0000000000000000e+00  1.9125662096887183e-01 -7.6552229676426540e-06 0.0000000000000000e+00  3.5785682036411318e-02 2.2458324591756927e-06 0.0000000000000000e+00  1.8273785754889282e-01 -8.9121210383250569e-03 0.0000000000000000e+00  1.6108663959480904e-01 4.5495743579170550e-02 0.0000000000000000e+00  1.9149994544518548e-01 -5.7624899882555993e-08 0.0000000000000000e+00  1.9111308706229313e-01 -1.3864529908746038e-05 0.0000000000000000e+00  1.4146340882735201e-01 -6.2888134371684315e-04 0.0000000000000000e+00  1.9525252845971408e-01 -3.5396988316841170e-03 0.0000000000000000e+00  3.7630775950667356e-01 3.9556901781347013e-02 0.0000000000000000e+00  1.6152754493517568e-01 3.1670508414843279e-05 0.0000000000000000e+00  1.4513877178510137e-01 1.8410833005313296e-05 0.0000000000000000e+00  1.5634887046858581e-01 -4.0716650505631697e-06 0.0000000000000000e+00  1.5235382611486251e-02 -2.1692170640300528e-02 0.0000000000000000e+00  3.3356411728460889e-01 -9.8294007335922428e-07 0.0000000000000000e+00  1.5255600651614323e-01 1.3852661734911991e-05 0.0000000000000000e+00  3.9516388501624888e-01 -1.3493234450501608e-02 0.0000000000000000e+00  1.5993474792051887e-01 2.1411488727428158e-05 0.0000000000000000e+00  1.9338005743616832e-01 -2.0128702702906067e-03 0.0000000000000000e+00  1.1852605905046543e-01 5.2728445865264669e-07 0.0000000000000000e+00  1.9146640287527095e-01 -1.4716849524768060e-05 0.0000000000000000e+00  1.5642538315757570e-01 -3.0246802445295858e-05 0.0000000000000000e+00  2.1733327589995297e-01 -1.4978473345247728e-06 0.0000000000000000e+00  1.5639135894083517e-01 -1.4018539567871887e-05 0.0000000000000000e+00  1.9114578802517396e-01 -5.3260746597118562e-05 0.0000000000000000e+00  1.9148252565291413e-01 -1.0925178384059814e-05 0.0000000000000000e+00  1.5226822697323406e-01 -6.4458448976787604e-05 0.0000000000000000e+00  1.2823903286667163e-01 -1.0844801865271570e-05 0.0000000000000000e+00  1.9010689555447297e-01 -1.9761676424300161e-04 0.0000000000000000e+00  1.2595363611940513e-01 -4.9088300060123457e-04 0.0000000000000000e+00  2.6231017398613965e-01 -2.6505861346148206e-02 0.0000000000000000e+00  2.0378480079390307e-01 -1.7738460450256524e-02 0.0000000000000000e+00  3.3515865314341425e-01 -9.3991208894591588e-02 0.0000000000000000e+00  1.4640421693439742e-01 -4.4673047475512925e-05 0.0000000000000000e+00  2.1044475852210917e-01 -3.6693667106213336e-02 0.0000000000000000e+00  1.8660417593909526e-01 -6.9194376428902702e-03 0.0000000000000000e+00  1.9053921432763052e-01 -1.0419517244148945e-05 0.0000000000000000e+00  1.9075865094097874e-01 -1.4415697463835806e-03 0.0000000000000000e+00  1.2813525546484822e-01 6.9875197227585034e-06 0.0000000000000000e+00  1.4488158374910651e-01 -1.086810468032