<?xml version="1.0"?>
<VTKFile type="UnstructuredGrid"  version="0.1"  >
<UnstructuredGrid>
<Piece  NumberOfPoints="1404" NumberOfCells="2604">
<Points>
<DataArray  type="Float64"  NumberOfComponents="3"  format="ascii">0 0.41 0  0 0 0  2.2 0 0  2.2 0.41 0  0.2353553390593274 0.2353553390593274 0  0.25 0.2 0  0.2353553390593274 0.1646446609406726 0  0.2 0.15 0  0.1646446609406726 0.1646446609406726 0  0.15 0.2 0  0.1646446609406726 0.2353553390593274 0  0.2 0.25 0  0.6923879532511287 0.188268343236509 0  0.7 0.15 0  0.6923879532511287 0.1117316567634909 0  0.6707106781186547 0.07928932188134523 0  0.6382683432365089 0.05761204674887133 0  0.6 0.04999999999999999 0  0.5617316567634909 0.05761204674887134 0  0.5292893218813453 0.07928932188134524 0  0.5076120467488713 0.111731656763491 0  0.5 0.15 0  0.5076120467488713 0.188268343236509 0  0.5292893218813453 0.2207106781186547 0  0.561731656763491 0.2423879532511287 0  0.6 0.25 0  0.6382683432365089 0.2423879532511287 0  0.6707106781186547 0.2207106781186547 0  1.1 0 0  0 0.205 0  1.1 0.41 0  0.55 0 0  0.55 0.41 0  0.275 0 0  0.8250000000000001 0 0  0.275 0.41 0  0.8250000000000001 0.41 0  0.6875 0 0  0.61875 0 0  1.65 0.41 0  1.65 0 0  1.375 0 0  1.375 0.41 0  1.925 0 0  1.925 0.41 0  1.5125 0.205 0  1.7875 0.205 0  0.9625000000000001 0.205 0  1.2375 0.205 0  2.2 0.205 0  1.99375 0.2152743902439024 0  0.4125 0.41 0  2.0625 0 0  2.0625 0.41 0  2.2 0.3075 0  1.7875 0.41 0  1.375 0.1486128048780488 0  1.5125 0 0  1.7875 0 0  1.5125 0.41 0  0.9625000000000001 0.41 0  0.4125 0 0  0.1375 0 0  0.1375 0.41 0  0.6875 0.41 0  0.9625000000000001 0 0  1.2375 0 0  1.1 0.1486128048780488 0  1.2375 0.41 0  1.65 0.1486128048780487 0  0.823495464168302 0.2603780552348366 0  0.3738707794507017 0.2720196349488618 0  0.3662291281331582 0.1311456406657909 0  1.676715909090909 0.2793064024390244 0  1.126715909090909 0.2793064024390244 0  1.348284090909091 0.2793064024390244 0  0.8287581077665108 0.1302150898054257 0  1.894702181800738 0.1282910975492754 0  2.092797818199262 0.1282910975492754 0  1.85625 0.3075 0  0 0.3075 0  0 0.1025 0  2.099172119769978 0.25625 0  0.4752414543992246 0.3180372603390748 0  1.99375 0.08395950269330846 0  1.459960956013612 0.3075 0  1.569025960719943 0.2986889805672169 0  1.03125 0.3278689922742084 0  1.959375 0.3126371951219512 0  1.749222215368287 0.1025 0  1.275777784631713 0.1025 0  0.9228016959331474 0.3075 0  1.000777784631713 0.1025 0  2.2 0.1025 0  1.225938124459196 0.3075 0  1.550777784631713 0.1025 0  1.44375 0.07430640243902442 0  1.16875 0.07430640243902439 0  0.7562500000000001 0.3358727844323386 0  0.89375 0 0  1.899250267340833 0.2229966846119207 0  0.61875 0.41 0  1.766482954545455 0.2934032012195123 0  1.046078563095834 0.2389031808701145 0  1.421109702350723 0.2261157654379721 0  0.07567171807980319 0.25625 0  0.2511897295290552 0.3235829392832554 0  0.07655002503762308 0.1488653460959645 0  0.1377245246847496 0.3206030474919778 0  0.6694099692696568 0.3242771941727899 0  0.9168971191497528 0.1295727156104653 0  0.7562500000000001 0 0  2.118919042110979 0.3422084711244843 0  2.13125 0 0  0.06875000000000001 0 0  1.30625 0.41 0  1.597888256393107 0.2173787389261347 0  0.34375 0.41 0  0.2493272016354703 0.08091360081773515 0  0.5588896233436766 0.3264056208677571 0  1.829299675393195 0.07400700849299596 0  0.1334079128307869 0.08523463035786674 0  1.71875 0.41 0  0.06875000000000001 0.41 0  1.16875 0.41 0  2.038220665644273 0.332420740103091 0  0.8810647413215221 0.2027360103977071 0  0.34375 0 0  0.7453891198966415 0.2471459041008237 0  0.42112093004955 0.1988123139090554 0  0.8314023090855964 0.3351170841770613 0  0.89375 0.41 0  0.7906250000000001 0.06615386481594063 0  1.452769549894695 0.1548122580621249 0  1.369219062229598 0.07430640243902442 0  1.30625 0 0  1.07420695807087 0.07430640243902439 0  1.720943423819132 0.1714577452753128 0  1.157188124459196 0.205 0  1.304056576180868 0.1714577452753128 0  1.67579304192913 0.07430640243902437 0  1.209670467133757 0.136210026696477 0  0.4312800784902823 0.08036147352247747 0  0.8723959680194693 0.07066860609690805 0  1.025335513626278 0.1700681449722324 0  0.7945632284247136 0.1940204203251442 0  0.378125 0.3452261501101892 0  0.3307109909790086 0.2037165635083759 0  0.3009701032039409 0.2702970083403109 0  0.20625 0.41 0  1.58125 0 0  0.4812500000000001 0 0  0.9838963872396855 0.2722244191167347 0  0.06772484939107212 0.3260067317374387 0  0.20625 0 0  1.58125 0.41 0  1.631724228912893 0.3381867502687533 0  1.825608881788174 0.14499488549201 0  1.85625 0 0  1.44375 0 0  1.44375 0.41 0  1.85625 0.41 0  2.13125 0.41 0  0.7562500000000001 0.41 0  0.4812500000000001 0.41 0  1.16875 0 0  1.03125 0.41 0  1.03125 0 0  1.71875 0 0  1.99375 0 0  1.99375 0.41 0  0.9408708167433545 0.0651989315768642 0  1.340625 0.3489494290853124 0  1.134375 0.3489494290853123 0  1.700180620188976 0.3438659752031281 0  0.29668452290037 0.1318471691375986 0  0.3175441051360096 0.06496934809856265 0  0.06509151636162461 0.08140814015999148 0  2.135782184673599 0.07126652247502523 0  1.668441847249787 0.2129203728327609 0  1.295782514339747 0.2378437748815763 0  1.409375 0.3520314716057996 0  2.129248544730567 0.1906135162504124 0  2.060771381434487 0.1989445750470348 0  2.013252586573865 0.1496169464686054 0  1.942766402200229 0.1734448904596831 0  1.895522487186454 0.06076163953489683 0  2.069553871656643 0.06605731020975725 0  0.4670911801404742 0.2498408582391372 0  0.7622743084658112 0.1264100838268133 0  1.274680914880868 0.3520219391081363 0  0.3148669572599245 0.3331753056385887 0  1.614713220494657 0.09473434380863296 0  1.72990325744076 0.2380068107952482 0  1.356580098625191 0.2120393231351682 0  2.034370752044885 0.2668681600792073 0  1.51768709249349 0.3426260931494756 0  1.561883724969884 0.1650446847858835 0  1.197344062229598 0.2523725417393646 0  1.804085235518364 0.3468178408964637 0  1.817887819205233 0.2589243285818559 0  1.905897727272727 0.3485060975609756 0  0.7296439733931823 0.06337466644369745 0  0.4250935971865949 0.1394919578475796 0  0.3773030136511669 0.05130372097998036 0  1.192836486056382 0.3562350748565544 0  1.1029124365364 0.226143510831178 0  1.28257088594801 0.2944411014911587 0  0.1905185804731426 0.06029880676029167 0  1.474860187679412 0.2504218616229368 0  1.406767003493824 0.2829282258560709 0  0.5209826960981064 0.2830664557824064 0  0.5131119502780163 0.3617405848213254 0  0.1948220106098172 0.3081993407644811 0  1.845656689180403 0.1998310418452388 0  2.144958525570388 0.2909790873294231 0  2.2 0.15375 0  0.8833025251326762 0.2625402923007629 0  0.171875 0.3653875762360952 0  1.57794966442982 0.3540357145964566 0  0.446875 0.366068291212731 0  0.4272051715206439 0.2891929346190664 0  1.508991196088596 0.1421783375065625 0  1.50436820029908 0.06143401634903343 0  1.223857000523521 0.08235548624535324 0  0.6137904613287555 0.3066826366281556 0  1.153316824384777 0.1289850171317838 0  0.9751573703656133 0.327632618473408 0  2.148922302309752 0.1258841779285271 0  0.9281250000000001 0.3643758685795699 0  1.621993280276081 0.2841214267927899 0  1.550118654119087 0.2461998729100966 0  1.327182649291491 0.1216967252533594 0  0.9939955742738924 0.04663549843168518 0  1.753125 0.04556020050186112 0  1.271875 0.04556020050186116 0  0.9734326767716519 0.1506854560854393 0  0.103125 0.3675775577080512 0  1.94956388244759 0.1180512551534177 0  1.949997712993411 0.04965831614304109 0  0.717433898748555 0.295596016333797 0  1.771961817615021 0.1530278789497521 0  1.909246823951428 0.2812757146784527 0  0 0.35875 0  1.050632804931928 0.1226269704412814 0  0.05695108326502596 0.2024009637347154 0  1.948575539857022 0.2445328248721197 0  1.697271520964565 0.1233917627620729 0  1.065625 0.3689344961371042 0  1.085849084308977 0.3170853572226867 0  0.1015495998772944 0.04226029099983852 0  1.577403511714593 0.05463601888079143 0  1.751571320346033 0.3651102912045228 0  2.2 0.35875 0  0.7441773632462837 0.1786786606458751 0  0 0.05125 0  1.466879772203159 0.3611261772912453 0  0.6282230348858767 0.3577675483994025 0  1.990280163552011 0.3564754268533217 0  1.17471064520912 0.2990917256188288 0  0 0.25625 0  2.2 0.25625 0  2.2 0.05125 0  0 0.15375 0  1.853978576207987 0.35875 0  1.515638456102889 0.2882700110184686 0  2.150453692751374 0.2387066338105111 0  1.323782677156475 0.04897634338873398 0  1.409375 0.03715320121951221 0  1.406484531114799 0.1087852750766809 0  1.134375 0.03715320121951219 0  0.721875 0.3729363922161693 0  0.7941695928236929 0.3696489254637395 0  0.7934827162619036 0.3013409431456604 0  1.627401732573545 0.04552157221025036 0  0.9352049974617431 0.2507047965699472 0  0.8763260682738339 0.3611103317460093 0  2.045405893604797 0.1105340662939892 0  1.255408269734577 0.1577307500159216 0  2.028125 0.03707597992059326 0  1.003030137506755 0.3689344961371042 0  1.248258025468107 0.2565907092181813 0  1.203125 0.03661323374043041 0  0.4800125512335631 0.0549472816999725 0  2.072662025974815 0.2975086504196739 0  0.240625 0.3729825336867542 0  1.113252391110535 0.10238286244357 0  1.071052763974265 0.1885202618768825 0  0.8738809401657862 0.3106483608284829 0  0.6786819423003397 0.2677558482644021 0  1.887722846421017 0.1760882698830035 0  1.472640588990488 0.1118278026240017 0  0.5843750000000001 0.41 0  1.865937103925594 0.2604137786483804 0  1.463913572748262 0.2030442564990043 0  1.376426316059077 0.3186741374914345 0  0.1038643885363755 0.2162701735320032 0  0.1769473813227781 0.1070849728467114 0  0.458787839809176 0.171541653775316 0  0.240625 0 0  0.04179569703428024 0.2877217852556549 0  0.1258346557601885 0.2699740073054968 0  1.722140693354707 0.282908100935778 0  0.41206179117512 0.2448172567039922 0  0.3702471778075604 0.2265217604228704 0  0.3714881805374215 0.1786967818665642 0  1.77397096061971 0.2481483237422926 0  2.105123889160691 0.03743885948498647 0  1.001138337938679 0.229719337663998 0  1.051242910646791 0.2854826559431138 0  1.395420985247586 0.18
[...]
<PointData  Vectors="f_37"> 
<DataArray  type="Float64"  Name="f_37"  NumberOfComponents="3" format="ascii">2.4972008011430579e-07 4.5334270988676067e-08 0.0000000000000000e+00  -4.4530064698440370e-06 -3.5585775836161444e-07 0.0000000000000000e+00  -6.5065150787722632e-07 9.2522758493307066e-10 0.0000000000000000e+00  -8.3828733074078598e-07 2.2884133376682111e-10 0.0000000000000000e+00  -2.8252907660912083e-08 3.1652679836180490e-07 0.0000000000000000e+00  1.3071017470836376e-07 -2.0993839689869436e-08 0.0000000000000000e+00  1.2416586313749376e-07 1.8780369304301631e-07 0.0000000000000000e+00  -9.3957553380096870e-07 -9.2374257075490259e-08 0.0000000000000000e+00  -8.1879750593913555e-07 -1.2155195032118029e-07 0.0000000000000000e+00  1.1720634864573247e-07 -4.8093912073222298e-07 0.0000000000000000e+00  -9.3530525136689439e-07 -5.0601554243487471e-07 0.0000000000000000e+00  -1.0272416902703472e-06 -2.3701587112726619e-07 0.0000000000000000e+00  3.6183273137838991e-07 1.9575109971512382e-07 0.0000000000000000e+00  -2.9951002812719508e-07 -1.9983581130500597e-07 0.0000000000000000e+00  -3.0234594592723263e-07 9.3229229552684185e-08 0.0000000000000000e+00  -8.5136202300568253e-07 -2.7561683505292885e-07 0.0000000000000000e+00  2.3445582113436702e-06 3.2944581160345589e-07 0.0000000000000000e+00  3.4818153228085158e-01 9.6815712049951333e-02 0.0000000000000000e+00  1.4912569083385893e-06 -1.2963499320255293e-07 0.0000000000000000e+00  -1.3596891555002918e-06 3.5760048622249574e-07 0.0000000000000000e+00  -1.3658179105344349e-06 -2.1354668561729040e-07 0.0000000000000000e+00  -4.0370077798559865e-09 -3.3490996710004355e-07 0.0000000000000000e+00  5.1480538949881293e-07 1.3755603845837767e-07 0.0000000000000000e+00  -5.0971657079987474e-07 -1.8636773388333703e-06 0.0000000000000000e+00  -3.2105026117183875e-06 -1.5627061346585117e-06 0.0000000000000000e+00  -4.5262552076619461e-06 -3.2480522462873169e-07 0.0000000000000000e+00  -4.4477223856910908e-06 -5.2769963629923170e-08 0.0000000000000000e+00  -3.6938370807461031e-07 1.6838720890448229e-07 0.0000000000000000e+00  2.4722337016632848e-06 -5.6868885583677365e-07 0.0000000000000000e+00  1.6583342554762653e-01 -4.2985995298141234e-07 0.0000000000000000e+00  -1.1457489262088619e-06 -6.2080257265097506e-08 0.0000000000000000e+00  2.9203350053352434e-06 4.0038929256526918e-08 0.0000000000000000e+00  -5.0680930996661362e-07 -9.7159108014646270e-08 0.0000000000000000e+00  4.0718016960400326e-07 4.8520465804597291e-08 0.0000000000000000e+00  -3.9278731519261589e-07 -1.7025547005703061e-08 0.0000000000000000e+00  -1.0445715034538928e-06 -3.5195713729221179e-09 0.0000000000000000e+00  -1.4743342442637986e-06 8.0592153384255038e-08 0.0000000000000000e+00  -2.5259090815226909e-06 -4.7932197104256582e-07 0.0000000000000000e+00  -8.8019638092350119e-06 -1.1924641350809120e-06 0.0000000000000000e+00  -1.2383267711914137e-06 -5.7777192280737493e-08 0.0000000000000000e+00  -9.4062661707704276e-07 -6.4523494768345314e-08 0.0000000000000000e+00  -2.8810576161599095e-06 5.9601604605625354e-07 0.0000000000000000e+00  9.0059250273594046e-07 1.8121292349165949e-07 0.0000000000000000e+00  -5.0314518947554655e-07 -4.3155942221077952e-10 0.0000000000000000e+00  -5.6951766452703711e-08 4.3330193379154127e-10 0.0000000000000000e+00  2.3325831285097764e-01 1.9620804288849714e-02 0.0000000000000000e+00  2.2698284993154941e-01 1.7356735340767870e-03 0.0000000000000000e+00  1.6477118580302513e-01 -4.4664358907358778e-03 0.0000000000000000e+00  3.0743011219305888e-01 -1.0090907127487000e-01 0.0000000000000000e+00  2.2704866842006347e-01 -4.0827994624935365e-05 0.0000000000000000e+00  2.2673581668303380e-01 -6.7183700226466258e-05 0.0000000000000000e+00  2.6433786914689510e-07 -4.3382421601535452e-09 0.0000000000000000e+00  1.5872367674021828e-07 3.0502970485722858e-10 0.0000000000000000e+00  -5.4430350980474223e-07 1.3224776636222829e-09 0.0000000000000000e+00  1.8636481143702732e-01 -3.2745779055665233e-05 0.0000000000000000e+00  -8.0424231294088804e-07 -1.0037140550731405e-08 0.0000000000000000e+00  2.4661927913359080e-01 -4.1756678473310452e-02 0.0000000000000000e+00  -1.1710066602422712e-06 -2.1157070114114249e-08 0.0000000000000000e+00  -9.8074680997285954e-07 -1.1145537249749106e-08 0.0000000000000000e+00  -1.3344948213052906e-06 -1.7040102401385518e-07 0.0000000000000000e+00  -4.3030767009039431e-07 -9.6738272032139550e-08 0.0000000000000000e+00  -4.0189278093029500e-07 -9.1262199214792303e-08 0.0000000000000000e+00  -8.4791412305904778e-07 -6.6278856415954734e-08 0.0000000000000000e+00  -3.6794454915281007e-07 -5.5407880265670961e-08 0.0000000000000000e+00  -2.3747605348910692e-06 7.3136005252777269e-08 0.0000000000000000e+00  -2.8007486760509860e-07 4.9063978391883143e-08 0.0000000000000000e+00  3.3513898881546878e-08 -2.9017154113130809e-07 0.0000000000000000e+00  1.3903830073724777e-01 -1.2982662879947359e-02 0.0000000000000000e+00  3.7785059544777052e-07 1.7402707015134426e-07 0.0000000000000000e+00  2.2069188294454148e-01 7.7422840729547164e-03 0.0000000000000000e+00  2.6342736973192726e-01 -3.7781356407332427e-02 0.0000000000000000e+00  1.0630797651846421e-01 5.3672696750852169e-03 0.0000000000000000e+00  3.0489597174990352e-01 1.0663010876416026e-01 0.0000000000000000e+00  2.0441700782070779e-01 5.1303169536993602e-03 0.0000000000000000e+00  3.4862166532828393e-01 -7.1786125926898342e-02 0.0000000000000000e+00  2.0165119137082901e-01 -1.5412659854148683e-02 0.0000000000000000e+00  7.0878738463889035e-02 4.9072149355156802e-02 0.0000000000000000e+00  2.0646231801627835e-01 1.1933418484090321e-04 0.0000000000000000e+00  2.0639808229852583e-01 -6.4398418681625396e-05 0.0000000000000000e+00  1.8628939778057327e-01 1.9591195866767275e-04 0.0000000000000000e+00  7.5234904972413863e-02 4.9556013240418984e-08 0.0000000000000000e+00  2.7319254724679148e-01 1.8043665662310651e-08 0.0000000000000000e+00  2.1873615968002952e-01 -7.5247455768959147e-05 0.0000000000000000e+00  2.4124949962420783e-01 7.2319683274850693e-02 0.0000000000000000e+00  1.6553268610887070e-01 -5.7149562607704217e-05 0.0000000000000000e+00  1.5376092719877782e-01 1.8397345921665607e-02 0.0000000000000000e+00  1.8113741654183121e-01 1.2869514065896252e-02 0.0000000000000000e+00  3.1787158996939224e-01 -3.4002651924960929e-02 0.0000000000000000e+00  1.8131583248843131e-01 -6.4405834610603818e-05 0.0000000000000000e+00  1.8750706914951737e-01 1.5835573996720081e-03 0.0000000000000000e+00  1.3915426124896446e-01 -6.2089694375699146e-02 0.0000000000000000e+00  3.9247053503625057e-01 -3.7917580681391082e-02 0.0000000000000000e+00  4.7379050895797595e-02 2.2171681227770777e-02 0.0000000000000000e+00  1.8621367377588566e-01 -2.1695294957706685e-05 0.0000000000000000e+00  2.2080652231855358e-01 -4.4877171574959268e-02 0.0000000000000000e+00  2.0039903662640748e-01 8.8895149298643724e-03 0.0000000000000000e+00  1.7147560406978946e-01 -3.6728588012713993e-03 0.0000000000000000e+00  2.2896838452321929e-02 -1.7555040821416349e-02 0.0000000000000000e+00  4.2581871526547144e-01 -3.5765200081743574e-02 0.0000000000000000e+00  -5.9114302486972649e-07 7.5345474484975189e-08 0.0000000000000000e+00  2.2606600699467641e-01 1.8926637243848188e-04 0.0000000000000000e+00  -9.3292000793706444e-07 -6.0262641004594958e-09 0.0000000000000000e+00  1.9750411122883194e-01 1.3637866206898241e-03 0.0000000000000000e+00  3.0042835470930879e-01 -4.3403015359109648e-02 0.0000000000000000e+00  2.4203605698449474e-01 4.1373811783311180e-03 0.0000000000000000e+00  1.2570913992167287e-01 7.1170254928556137e-02 0.0000000000000000e+00  2.3117972490983985e-01 1.4888637248797951e-02 0.0000000000000000e+00  2.0879040432784551e-01 2.4392627663400019e-02 0.0000000000000000e+00  1.4757952499585111e-01 7.4017221912806755e-02 0.0000000000000000e+00  4.5632455551525758e-01 -1.3770770267100158e-02 0.0000000000000000e+00  7.5598105580181416e-02 2.8036377352939817e-02 0.0000000000000000e+00  -2.2018132624739394e-07 -8.2376999285998670e-08 0.0000000000000000e+00  1.4320719096403686e-01 -3.3628724462052317e-05 0.0000000000000000e+00  -1.6230554965474398e-06 -6.0661888000847503e-11 0.0000000000000000e+00  -1.2897544099211185e-06 8.8791926165570504e-09 0.0000000000000000e+00  1.5859906782408991e-06 3.9594494789400514e-07 0.0000000000000000e+00  2.2519832835907266e-01 1.4496834961892085e-02 0.0000000000000000e+00  -1.9139875677023992e-06 -2.3949919876718898e-08 0.0000000000000000e+00  4.0380607446252448e-01 4.2480086765969614e-02 0.0000000000000000e+00  3.7429311901357315e-01 7.6970571866136248e-02 0.0000000000000000e+00  1.5235053183608729e-01 2.2754648522440947e-04 0.0000000000000000e+00  3.4359989800430474e-01 1.3157511287381504e-02 0.0000000000000000e+00  -1.0927498901214820e-06 -3.4318838115318122e-08 0.0000000000000000e+00  -7.4873658039114423e-08 -8.4441770637586940e-09 0.0000000000000000e+00  -6.0291242648527825e-07 9.3236658156089187e-09 0.0000000000000000e+00  1.5747905520083066e-01 -6.0012406154996063e-05 0.0000000000000000e+00  1.0430159193316646e-01 2.2600734641103396e-03 0.0000000000000000e+00  -3.1667497415549559e-07 -9.6239346408325696e-08 0.0000000000000000e+00  1.4580580098134457e-01 -2.5543078772454375e-02 0.0000000000000000e+00  1.5512068462312950e-01 1.4932967079769610e-01 0.0000000000000000e+00  3.9541075744268950e-01 -3.4039509274049411e-02 0.0000000000000000e+00  1.8485192931914087e-06 -1.0032470466846398e-07 0.0000000000000000e+00  1.1449479129257970e-01 4.8217507973006474e-02 0.0000000000000000e+00  2.4232542976770957e-01 -1.0293464222464086e-03 0.0000000000000000e+00  1.5102880087085177e-01 -2.4381486757986816e-02 0.0000000000000000e+00  -2.5276431992982317e-06 3.4642883161030630e-07 0.0000000000000000e+00  7.4898256946819720e-03 1.1086188981660878e-02 0.0000000000000000e+00  2.2463690312763651e-01 4.0145537325567806e-03 0.0000000000000000e+00  2.8862629081864499e-01 -7.8157768828288704e-02 0.0000000000000000e+00  2.7126152247570556e-01 -8.2952812518207603e-02 0.0000000000000000e+00  1.5621696109674729e-01 2.5133468620440595e-03 0.0000000000000000e+00  1.6980361362894544e-01 -6.8769853937521441e-02 0.0000000000000000e+00  2.3857733737402487e-01 2.4781394198017205e-02 0.0000000000000000e+00  6.0914076556136239e-02 1.9026992462968215e-02 0.0000000000000000e+00  1.4228769404657218e-01 5.5035773104307687e-03 0.0000000000000000e+00  2.5018075877208060e-02 9.8137717646248901e-03 0.0000000000000000e+00  2.1201778583334119e-01 7.6375045572250212e-03 0.0000000000000000e+00  3.5611032870105731e-02 1.5911848178671362e-02 0.0000000000000000e+00  1.0129303049322426e-01 -1.9997960247863902e-02 0.0000000000000000e+00  -9.3812856191206805e-07 -1.1050998497565757e-07 0.0000000000000000e+00  -1.7122601777298428e-07 -6.9998956068522586e-08 0.0000000000000000e+00  -7.3924294911376097e-07 3.8077223229189066e-07 0.0000000000000000e+00  3.5317926817779866e-01 -4.1806037823520367e-02 0.0000000000000000e+00  7.8040310521582362e-02 3.1199709125536424e-02 0.0000000000000000e+00  -2.2470837310474029e-06 -1.0228648484780866e-07 0.0000000000000000e+00  -1.4027070837821294e-06 -1.1620641286628520e-07 0.0000000000000000e+00  1.4326967693969023e-01 3.8248450448647793e-03 0.0000000000000000e+00  2.1549050666566150e-01 7.5178308795860720e-04 0.0000000000000000e+00  -7.1746503394815069e-07 -2.4349748683458393e-09 0.0000000000000000e+00  -1.5624340359325229e-06 2.3897737041050438e-07 0.0000000000000000e+00  -6.8065070443755711e-07 -1.2746227002419320e-07 0.0000000000000000e+00  -1.3245965569541193e-07 -1.5756917114003977e-09 0.0000000000000000e+00  -9.6257059494902877e-08 5.7107095381866096e-10 0.0000000000000000e+00  3.7688244475143183e-07 -5.0526723827492058e-09 0.0000000000000000e+00  -2.2157143679965058e-06 -2.6929388187068533e-07 0.0000000000000000e+00  2.6223718888268627e-06 -7.5689121746315340e-07 0.0000000000000000e+00  -2.3953695858996323e-07 -1.2212345215453694e-07 0.0000000000000000e+00  7.6816759233189268e-07 -8.9785010569640036e-08 0.0000000000000000e+00  2.1734753851863731e-07 -2.1595711433663052e-08 0.0000000000000000e+00  -8.9440840918832621e-07 1.0373623737750848e-09 0.0000000000000000e+00  -2.9924246085723700e-07 4.6060132659416590e-10 0.0000000000000000e+00  3.1834314327701480e-02 1.2383302364446213e-02 0.0000000000000000e+00  8.4323010943878687e-02 -2.1775310322371152e-03 0.0000000000000000e+00  1.7886139429133546e-01 -2.1498693384127757e-02 0.0000000000000000e+00  1.3855318937355302e-01 1.4679306208133620e-03 0.0000000000000000e+00  2.9170879427295260e-01 7.5963366706459520e-02 0.0000000000000000e+00  3.3716776451854552e-01 5.3574004800206812e-02 0.0000000000000000e+00  3.1541424882081726e-01 2.6273561882406007e-02 0.0000000000000000e+00  1.4824699716238096e-01 -2.1694557126652855e-05 0.0000000000000000e+00  2.2611392348920961e-01 7.6246325334194780e-03 0.0000000000000000e+00  2.8730047944320924e-01 -6.8164030572426079e-02 0.0000000000000000e+00  8.3404115383977101e-02 6.5870590092578993e-03 0.0000000000000000e+00  2.2642607786913535e-01 -6.7192583950501387e-05 0.0000000000000000e+00  2.2692344096091757e-01 -8.9696872070532435e-05 0.0000000000000000e+00  2.1704781904799963e-01 -8.7151789384283464e-05 0.0000000000000000e+00  2.2400823945580306e-01 6.0417689909300590e-06 0.0000000000000000e+00  1.3164922231654674e-01 -8.8599856147857440e-07 0.0000000000000000e+00  1.4027772927116378e-01 -3.1368907210437397e-05 0.0000000000000000e+00  1.9841593668915214e-01 1.8987372357235549e-01 0.0000000000000000e+00  4.1896339546692356e-02 4.6677484227099150e-02 0.0000000000000000e+00  9.3157818417061181e-02 -1.0736051433615791e-02 0.0000000000000000e+00  2.1991246776334705e-01 -4.8867397560901932e-03 0.0000000000000000e+00  1.8628955725302826e-01 6.2154536168932267e-03 0.0000000000000000e+00  2.2262875533328158e-01 3.5061230308198492e-03 0.0000000000000000e+00  2.7397805356776223e-01 -3.9892035144852116e-02 0.0000000000000000e+00  2.1451082897807927e-01 -8.4030887816439730e-05 0.0000000000000000e+00  1.2093903215123826e-01 9.4604773721873956e-03 0.0000000000000000e+00  2.3015739225906826e-01 1.4727068387281399e-02 0.0000000000000000e+00  3.3210370344792878e-01 -9.1077642616141014e-02 0.0000000000000000e+00  1.3577939257652877e-01 2.5898147091975543e-04 0.0000000000000000e+00  2.1733952277786631e-01 8.5569482657456069e-04 0.0000000000000000e+00  1.3332118550927324e-01 -1.6648545832304811e-05 0.0000000000000000e+00  1.6303886336533871e-01 7.7351393582897984e-02 0.0000000000000000e+00  2.4632926267532984e-01 1.3006129749665435e-01 0.0000000000000000e+00  2.1966495904966749e-01 3.1005039372885485e-02 0.0000000000000000e+00  1.2106519256063171e-01 -1.4238685579943667e-02 0.0000000000000000e+00  3.0243214811716640e-01 -6.0009722001284863e-02 0.0000000000000000e+00  2.0768743314402063e-01 -3.7717609939459523e-02 0.0000000000000000e+00  3.9248917653957549e-01 1.8033894875518697e-02 0.0000000000000000e+00  2.1284428586359541e-01 2.2572517854920007e-02 0.0000000000000000e+00  1.8217637327444305e-01 1.0434637943922988e-02 0.0000000000000000e+00  3.4027434919851951e-01 1.8280171066865619e-01 0.0000000000000000e+00  2.7745522738449385e-01 3.6228477778939783e-02 0.0000000000000000e+00  2.3158748192197581e-01 7.2472909011642772e-02 0.0000000000000000e+00  2.2696335443249149e-01 6.7133156017287223e-04 0.0000000000000000e+00  2.0034479007279704e-01 -5.5608685398466986e-05 0.0000000000000000e+00  2.1864058278910256e-01 -3.1916345992558914e-05 0.0000000000000000e+00  2.9756872063930340e-01 -3.6340901556789457e-02 0.0000000000000000e+00  1.2560810951867032e-01 2.5559404881755836e-02 0.0000000000000000e+00  1.1324071200932352e-01 4.5466771956868320e-03 0.0000000000000000e+00  2.1000547092517427e-01 2.1466587064711100e-02 0.0000000000000000e+00  1.5887569926279443e-01 4.9390778591449476e-02 0.0000000000000000e+00  2.2991131601690823e-01 1.0567367759597828e-02 0.0000000000000000e+00  1.5102323731165332e-01 3.5962814824329549e-03 0.0000000000000000e+00  6.6423301396726406e-02 -4.0529015358143447e-02 0.0000000000000000e+00  4.6282884259034363e-01 4.2509870645296363e-02 0.0000000000000000e+00  1.2218269128248586e-01 -3.4202945520768642e-02 0.0000000000000000e+00  3.4748605598371701e-01 -3.1155836723666980e-02 0.0000000000000000e+00  2.0490869284879851e-01 -3.9468341338078627e-05 0.0000000000000000e+00  2.3700080524667044e-01 -1.2788208610489585e-02 0.0000000000000000e+00  1.9799144074456171e-01 8.9851583697893242e-03 0.0000000000000000e+00  2.1470243091526026e-01 1.9737143623659151e-02 0.0000000000000000e+00  2.0184054301650958e-01 -6.1880442281196338e-02 0.0000000000000000e+00  6.5622359990288263e-03 8.8716844600538417e-03 0.0000000000000000e+00  1.0512875071419656e-01 4.2334184889370900e-04 0.0000000000000000e+00  4.6547047115896620e-02 -2.0351180288139224e-02 0.0000000000000000e+00  9.7324406490652923e-02 2.0725595306740147e-02 0.0000000000000000e+00  6.2738778302611889e-02 1.7617816993546399e-02 0.0000000000000000e+00  1.9938698033979621e-01 -3.8171761154417107e-05 0.0000000000000000e+00  1.1211976082946624e-01 -3.4851160507365187e-05 0.0000000000000000e+00  4.0300260870070975e-01 -4.0404053056935688e-02 0.0000000000000000e+00  2.1912346002183070e-01 1.8734831145307931e-03 0.0000000000000000e+00  2.0679979830872436e-01 4.4424091722278556e-05 0.0000000000000000e+00  3.5785430785977207e-02 8.5744494395191661e-08 0.0000000000000000e+00  7.5833812261791103e-02 1.4723072663915494e-02 0.0000000000000000e+00  1.5903469270139803e-01 4.2016683126382848e-02 0.0000000000000000e+00  2.2225295668621795e-01 -7.3583788955822521e-06 0.0000000000000000e+00  2.0605578998184379e-01 3.9244341401569547e-03 0.0000000000000000e+00  1.5042603414706204e-01 -1.0404958356837976e-02 0.0000000000000000e+00  3.1211494251366079e-01 -4.4940156570945605e-02 0.0000000000000000e+00  3.8095709823022678e-01 3.5630682563168994e-02 0.0000000000000000e+00  1.3147592215151233e-01 3.4782921932164906e-03 0.0000000000000000e+00  1.0286061216911188e-01 3.7394388993478830e-04 0.0000000000000000e+00  1.1529854529592481e-01 -1.9008401444478179e-05 0.0000000000000000e+00  -7.0949940008404738e-03 1.2943782080925259e-02 0.0000000000000000e+00  3.3356379457011237e-01 3.0940553298206842e-08 0.0000000000000000e+00  8.1179468189495202e-02 6.7525117771675379e-03 0.0000000000000000e+00  3.9085890670597484e-01 3.1942022779427935e-03 0.0000000000000000e+00  1.1957912278776354e-01 -4.2834440179164342e-05 0.0000000000000000e+00  2.8501603703928857e-01 -6.0292294666355495e-02 0.0000000000000000e+00  1.1852650424691587e-01 -2.4703180193358793e-08 0.0000000000000000e+00  2.1872093334052878e-01 -2.8168067562697362e-05 0.0000000000000000e+00  1.1519322809967118e-01 -2.8830938051768243e-06 0.0000000000000000e+00  2.1733315084025254e-01 -2.7623626189815309e-08 0.0000000000000000e+00  1.1548827343421016e-01 4.0732814028035539e-05 0.0000000000000000e+00  1.8272837713701923e-01 1.9953431636683089e-02 0.0000000000000000e+00  2.2361641064673904e-01 -5.2805422612516386e-05 0.0000000000000000e+00  8.7161524380033786e-02 -1.9915173260669182e-02 0.0000000000000000e+00  1.0023061464923308e-01 -3.8241360667910420e-03 0.0000000000000000e+00  2.0702715769989655e-01 -2.1382448365662901e-02 0.0000000000000000e+00  -2.2627999745733735e-02 3.4057176873017973e-04 0.0000000000000000e+00  3.1146144289411731e-01 -1.6457812488036374e-02 0.0000000000000000e+00  2.8477879380964111e-01 -1.6960255869396975e-02 0.0000000000000000e+00  4.0864857667503485e-01 -4.5718848608987589e-02 0.0000000000000000e+00  1.0977087981064325e-01 1.8725610783792827e-03 0.0000000000000000e+00  2.7718026653455918e-01 -3.1079658046227601e-02 0.0000000000000000e+00  2.7954360793055033e-01 -1.6689020717889101e-02 0.0000000000000000e+00  1.9342739917812996e-01 -6.7833387033499636e-05 0.0000000000000000e+00  2.3934063127606359e-01 -9.1399407816182027e-02 0.0000000000000000e+00  8.7486335222756798e-02 -1.7042559660762582e-05 0.0000000000000000e+00  1.8063652126730614e-01 -1.0116744574863014e-02 0.0000000000000000e+00  2.9840