<?xml version="1.0"?>
<VTKFile type="UnstructuredGrid"  version="0.1"  >
<UnstructuredGrid>
<Piece  NumberOfPoints="1404" NumberOfCells="2604">
<Points>
<DataArray  type="Float64"  NumberOfComponents="3"  format="ascii">0 0.41 0  0 0 0  2.2 0 0  2.2 0.41 0  0.2353553390593274 0.2353553390593274 0  0.25 0.2 0  0.2353553390593274 0.1646446609406726 0  0.2 0.15 0  0.1646446609406726 0.1646446609406726 0  0.15 0.2 0  0.1646446609406726 0.2353553390593274 0  0.2 0.25 0  0.6923879532511287 0.188268343236509 0  0.7 0.15 0  0.6923879532511287 0.1117316567634909 0  0.6707106781186547 0.07928932188134523 0  0.6382683432365089 0.05761204674887133 0  0.6 0.04999999999999999 0  0.5617316567634909 0.05761204674887134 0  0.5292893218813453 0.07928932188134524 0  0.5076120467488713 0.111731656763491 0  0.5 0.15 0  0.5076120467488713 0.188268343236509 0  0.5292893218813453 0.2207106781186547 0  0.561731656763491 0.2423879532511287 0  0.6 0.25 0  0.6382683432365089 0.2423879532511287 0  0.6707106781186547 0.2207106781186547 0  1.1 0 0  0 0.205 0  1.1 0.41 0  0.55 0 0  0.55 0.41 0  0.275 0 0  0.8250000000000001 0 0  0.275 0.41 0  0.8250000000000001 0.41 0  0.6875 0 0  0.61875 0 0  1.65 0.41 0  1.65 0 0  1.375 0 0  1.375 0.41 0  1.925 0 0  1.925 0.41 0  1.5125 0.205 0  1.7875 0.205 0  0.9625000000000001 0.205 0  1.2375 0.205 0  2.2 0.205 0  1.99375 0.2152743902439024 0  0.4125 0.41 0  2.0625 0 0  2.0625 0.41 0  2.2 0.3075 0  1.7875 0.41 0  1.375 0.1486128048780488 0  1.5125 0 0  1.7875 0 0  1.5125 0.41 0  0.9625000000000001 0.41 0  0.4125 0 0  0.1375 0 0  0.1375 0.41 0  0.6875 0.41 0  0.9625000000000001 0 0  1.2375 0 0  1.1 0.1486128048780488 0  1.2375 0.41 0  1.65 0.1486128048780487 0  0.823495464168302 0.2603780552348366 0  0.3738707794507017 0.2720196349488618 0  0.3662291281331582 0.1311456406657909 0  1.676715909090909 0.2793064024390244 0  1.126715909090909 0.2793064024390244 0  1.348284090909091 0.2793064024390244 0  0.8287581077665108 0.1302150898054257 0  1.894702181800738 0.1282910975492754 0  2.092797818199262 0.1282910975492754 0  1.85625 0.3075 0  0 0.3075 0  0 0.1025 0  2.099172119769978 0.25625 0  0.4752414543992246 0.3180372603390748 0  1.99375 0.08395950269330846 0  1.459960956013612 0.3075 0  1.569025960719943 0.2986889805672169 0  1.03125 0.3278689922742084 0  1.959375 0.3126371951219512 0  1.749222215368287 0.1025 0  1.275777784631713 0.1025 0  0.9228016959331474 0.3075 0  1.000777784631713 0.1025 0  2.2 0.1025 0  1.225938124459196 0.3075 0  1.550777784631713 0.1025 0  1.44375 0.07430640243902442 0  1.16875 0.07430640243902439 0  0.7562500000000001 0.3358727844323386 0  0.89375 0 0  1.899250267340833 0.2229966846119207 0  0.61875 0.41 0  1.766482954545455 0.2934032012195123 0  1.046078563095834 0.2389031808701145 0  1.421109702350723 0.2261157654379721 0  0.07567171807980319 0.25625 0  0.2511897295290552 0.3235829392832554 0  0.07655002503762308 0.1488653460959645 0  0.1377245246847496 0.3206030474919778 0  0.6694099692696568 0.3242771941727899 0  0.9168971191497528 0.1295727156104653 0  0.7562500000000001 0 0  2.118919042110979 0.3422084711244843 0  2.13125 0 0  0.06875000000000001 0 0  1.30625 0.41 0  1.597888256393107 0.2173787389261347 0  0.34375 0.41 0  0.2493272016354703 0.08091360081773515 0  0.5588896233436766 0.3264056208677571 0  1.829299675393195 0.07400700849299596 0  0.1334079128307869 0.08523463035786674 0  1.71875 0.41 0  0.06875000000000001 0.41 0  1.16875 0.41 0  2.038220665644273 0.332420740103091 0  0.8810647413215221 0.2027360103977071 0  0.34375 0 0  0.7453891198966415 0.2471459041008237 0  0.42112093004955 0.1988123139090554 0  0.8314023090855964 0.3351170841770613 0  0.89375 0.41 0  0.7906250000000001 0.06615386481594063 0  1.452769549894695 0.1548122580621249 0  1.369219062229598 0.07430640243902442 0  1.30625 0 0  1.07420695807087 0.07430640243902439 0  1.720943423819132 0.1714577452753128 0  1.157188124459196 0.205 0  1.304056576180868 0.1714577452753128 0  1.67579304192913 0.07430640243902437 0  1.209670467133757 0.136210026696477 0  0.4312800784902823 0.08036147352247747 0  0.8723959680194693 0.07066860609690805 0  1.025335513626278 0.1700681449722324 0  0.7945632284247136 0.1940204203251442 0  0.378125 0.3452261501101892 0  0.3307109909790086 0.2037165635083759 0  0.3009701032039409 0.2702970083403109 0  0.20625 0.41 0  1.58125 0 0  0.4812500000000001 0 0  0.9838963872396855 0.2722244191167347 0  0.06772484939107212 0.3260067317374387 0  0.20625 0 0  1.58125 0.41 0  1.631724228912893 0.3381867502687533 0  1.825608881788174 0.14499488549201 0  1.85625 0 0  1.44375 0 0  1.44375 0.41 0  1.85625 0.41 0  2.13125 0.41 0  0.7562500000000001 0.41 0  0.4812500000000001 0.41 0  1.16875 0 0  1.03125 0.41 0  1.03125 0 0  1.71875 0 0  1.99375 0 0  1.99375 0.41 0  0.9408708167433545 0.0651989315768642 0  1.340625 0.3489494290853124 0  1.134375 0.3489494290853123 0  1.700180620188976 0.3438659752031281 0  0.29668452290037 0.1318471691375986 0  0.3175441051360096 0.06496934809856265 0  0.06509151636162461 0.08140814015999148 0  2.135782184673599 0.07126652247502523 0  1.668441847249787 0.2129203728327609 0  1.295782514339747 0.2378437748815763 0  1.409375 0.3520314716057996 0  2.129248544730567 0.1906135162504124 0  2.060771381434487 0.1989445750470348 0  2.013252586573865 0.1496169464686054 0  1.942766402200229 0.1734448904596831 0  1.895522487186454 0.06076163953489683 0  2.069553871656643 0.06605731020975725 0  0.4670911801404742 0.2498408582391372 0  0.7622743084658112 0.1264100838268133 0  1.274680914880868 0.3520219391081363 0  0.3148669572599245 0.3331753056385887 0  1.614713220494657 0.09473434380863296 0  1.72990325744076 0.2380068107952482 0  1.356580098625191 0.2120393231351682 0  2.034370752044885 0.2668681600792073 0  1.51768709249349 0.3426260931494756 0  1.561883724969884 0.1650446847858835 0  1.197344062229598 0.2523725417393646 0  1.804085235518364 0.3468178408964637 0  1.817887819205233 0.2589243285818559 0  1.905897727272727 0.3485060975609756 0  0.7296439733931823 0.06337466644369745 0  0.4250935971865949 0.1394919578475796 0  0.3773030136511669 0.05130372097998036 0  1.192836486056382 0.3562350748565544 0  1.1029124365364 0.226143510831178 0  1.28257088594801 0.2944411014911587 0  0.1905185804731426 0.06029880676029167 0  1.474860187679412 0.2504218616229368 0  1.406767003493824 0.2829282258560709 0  0.5209826960981064 0.2830664557824064 0  0.5131119502780163 0.3617405848213254 0  0.1948220106098172 0.3081993407644811 0  1.845656689180403 0.1998310418452388 0  2.144958525570388 0.2909790873294231 0  2.2 0.15375 0  0.8833025251326762 0.2625402923007629 0  0.171875 0.3653875762360952 0  1.57794966442982 0.3540357145964566 0  0.446875 0.366068291212731 0  0.4272051715206439 0.2891929346190664 0  1.508991196088596 0.1421783375065625 0  1.50436820029908 0.06143401634903343 0  1.223857000523521 0.08235548624535324 0  0.6137904613287555 0.3066826366281556 0  1.153316824384777 0.1289850171317838 0  0.9751573703656133 0.327632618473408 0  2.148922302309752 0.1258841779285271 0  0.9281250000000001 0.3643758685795699 0  1.621993280276081 0.2841214267927899 0  1.550118654119087 0.2461998729100966 0  1.327182649291491 0.1216967252533594 0  0.9939955742738924 0.04663549843168518 0  1.753125 0.04556020050186112 0  1.271875 0.04556020050186116 0  0.9734326767716519 0.1506854560854393 0  0.103125 0.3675775577080512 0  1.94956388244759 0.1180512551534177 0  1.949997712993411 0.04965831614304109 0  0.717433898748555 0.295596016333797 0  1.771961817615021 0.1530278789497521 0  1.909246823951428 0.2812757146784527 0  0 0.35875 0  1.050632804931928 0.1226269704412814 0  0.05695108326502596 0.2024009637347154 0  1.948575539857022 0.2445328248721197 0  1.697271520964565 0.1233917627620729 0  1.065625 0.3689344961371042 0  1.085849084308977 0.3170853572226867 0  0.1015495998772944 0.04226029099983852 0  1.577403511714593 0.05463601888079143 0  1.751571320346033 0.3651102912045228 0  2.2 0.35875 0  0.7441773632462837 0.1786786606458751 0  0 0.05125 0  1.466879772203159 0.3611261772912453 0  0.6282230348858767 0.3577675483994025 0  1.990280163552011 0.3564754268533217 0  1.17471064520912 0.2990917256188288 0  0 0.25625 0  2.2 0.25625 0  2.2 0.05125 0  0 0.15375 0  1.853978576207987 0.35875 0  1.515638456102889 0.2882700110184686 0  2.150453692751374 0.2387066338105111 0  1.323782677156475 0.04897634338873398 0  1.409375 0.03715320121951221 0  1.406484531114799 0.1087852750766809 0  1.134375 0.03715320121951219 0  0.721875 0.3729363922161693 0  0.7941695928236929 0.3696489254637395 0  0.7934827162619036 0.3013409431456604 0  1.627401732573545 0.04552157221025036 0  0.9352049974617431 0.2507047965699472 0  0.8763260682738339 0.3611103317460093 0  2.045405893604797 0.1105340662939892 0  1.255408269734577 0.1577307500159216 0  2.028125 0.03707597992059326 0  1.003030137506755 0.3689344961371042 0  1.248258025468107 0.2565907092181813 0  1.203125 0.03661323374043041 0  0.4800125512335631 0.0549472816999725 0  2.072662025974815 0.2975086504196739 0  0.240625 0.3729825336867542 0  1.113252391110535 0.10238286244357 0  1.071052763974265 0.1885202618768825 0  0.8738809401657862 0.3106483608284829 0  0.6786819423003397 0.2677558482644021 0  1.887722846421017 0.1760882698830035 0  1.472640588990488 0.1118278026240017 0  0.5843750000000001 0.41 0  1.865937103925594 0.2604137786483804 0  1.463913572748262 0.2030442564990043 0  1.376426316059077 0.3186741374914345 0  0.1038643885363755 0.2162701735320032 0  0.1769473813227781 0.1070849728467114 0  0.458787839809176 0.171541653775316 0  0.240625 0 0  0.04179569703428024 0.2877217852556549 0  0.1258346557601885 0.2699740073054968 0  1.722140693354707 0.282908100935778 0  0.41206179117512 0.2448172567039922 0  0.3702471778075604 0.2265217604228704 0  0.3714881805374215 0.1786967818665642 0  1.77397096061971 0.2481483237422926 0  2.105123889160691 0.03743885948498647 0  1.001138337938679 0.229719337663998 0  1.051242910646791 0.2854826559431138 0  1.395420985247586 0.18
[...]
<PointData  Vectors="f_37"> 
<DataArray  type="Float64"  Name="f_37"  NumberOfComponents="3" format="ascii">2.4934476506906591e-07 4.5169680075391396e-08 0.0000000000000000e+00  -4.4533568723841471e-06 -3.5348170134467257e-07 0.0000000000000000e+00  -6.4554208722367059e-07 1.7478344872207378e-09 0.0000000000000000e+00  -8.2059609718847315e-07 4.4125278931236359e-10 0.0000000000000000e+00  -5.7278909760192185e-08 3.2788782594315399e-07 0.0000000000000000e+00  1.1286145391261545e-07 -2.5683271925296233e-08 0.0000000000000000e+00  1.2551065166558530e-07 1.8190893962829766e-07 0.0000000000000000e+00  -9.2233922115533877e-07 -9.9846934649934700e-08 0.0000000000000000e+00  -8.5959939850208443e-07 -1.2049891034511658e-07 0.0000000000000000e+00  1.2881628657161784e-07 -4.4713619520863526e-07 0.0000000000000000e+00  -9.2617641111670897e-07 -5.1536698549172217e-07 0.0000000000000000e+00  -1.0520171998756530e-06 -2.5019346667422554e-07 0.0000000000000000e+00  4.0779071039400797e-07 -1.2905837327683830e-08 0.0000000000000000e+00  -3.1212951396305821e-07 -3.6904451101750842e-07 0.0000000000000000e+00  -3.4559615446012592e-07 -8.9437774721152940e-09 0.0000000000000000e+00  -8.4304469322466166e-07 -2.1220210955147028e-07 0.0000000000000000e+00  2.4065091005540715e-06 3.8200794464095806e-07 0.0000000000000000e+00  3.4776659016535433e-01 9.6737185304914569e-02 0.0000000000000000e+00  1.5854491792766271e-06 -1.1644802933020876e-07 0.0000000000000000e+00  -1.2667365054499298e-06 3.6887980405899900e-07 0.0000000000000000e+00  -1.3256976770996750e-06 -3.4833685077553396e-07 0.0000000000000000e+00  -2.9135391924617077e-08 -4.5794685079011154e-07 0.0000000000000000e+00  5.4616233770859846e-07 1.3025856127883935e-07 0.0000000000000000e+00  -3.9702379097348414e-07 -1.8471418172667491e-06 0.0000000000000000e+00  -3.1452259783365219e-06 -1.6425559709549391e-06 0.0000000000000000e+00  -4.5836981887782213e-06 -4.1430978265651979e-07 0.0000000000000000e+00  -4.5027255155850893e-06 -8.9220929673051741e-08 0.0000000000000000e+00  -3.1827937298418676e-07 9.8876274978292990e-08 0.0000000000000000e+00  1.0273305619396165e-06 -2.0269889259116138e-07 0.0000000000000000e+00  1.6583342582195365e-01 -4.2785570203362371e-07 0.0000000000000000e+00  -1.0990746952901433e-06 -8.8632406843841340e-08 0.0000000000000000e+00  3.0123580997624282e-06 4.9689658401071643e-08 0.0000000000000000e+00  -5.4570462376961356e-07 -9.3886310730300449e-08 0.0000000000000000e+00  4.1008790104842138e-07 4.6404208132292481e-08 0.0000000000000000e+00  -3.0242439758411651e-07 -3.4764119800208762e-08 0.0000000000000000e+00  -1.0329862384413712e-06 3.6787863581062285e-09 0.0000000000000000e+00  -1.4681982177612010e-06 8.3674854629238806e-08 0.0000000000000000e+00  -2.5452944154620685e-06 -4.7316770694212837e-07 0.0000000000000000e+00  -8.7272582849218922e-06 -1.1780121484183826e-06 0.0000000000000000e+00  -1.5489580555005788e-06 -1.4009671198389923e-07 0.0000000000000000e+00  -8.7335171780469110e-07 -9.3126004660781583e-08 0.0000000000000000e+00  -2.6848843946368598e-06 4.9253281718946547e-07 0.0000000000000000e+00  1.4014093718065423e-06 4.0226410458074693e-07 0.0000000000000000e+00  -5.0850108399517794e-07 -5.8439989185491405e-10 0.0000000000000000e+00  -3.9967272255042352e-08 7.3476847026661566e-10 0.0000000000000000e+00  2.4545755839067454e-01 1.4264283876758061e-02 0.0000000000000000e+00  2.2933196838932071e-01 4.1080772015643710e-03 0.0000000000000000e+00  1.5741072242863066e-01 -8.4012007338865480e-03 0.0000000000000000e+00  3.0008184773721985e-01 -8.6305007891633825e-02 0.0000000000000000e+00  2.2947336657842571e-01 -9.8708038735144382e-05 0.0000000000000000e+00  2.2913381126476809e-01 -1.9778234340247291e-04 0.0000000000000000e+00  2.6252254677805341e-07 -1.4960959562933220e-09 0.0000000000000000e+00  1.4872407292285661e-07 5.7987202190535252e-10 0.0000000000000000e+00  -5.2541791549151369e-07 2.4258204870364225e-09 0.0000000000000000e+00  1.8566402131328566e-01 -6.7111403388880176e-05 0.0000000000000000e+00  -8.7067162569557220e-07 -2.5324517935644397e-08 0.0000000000000000e+00  2.4892153393287095e-01 -6.7238297292058741e-02 0.0000000000000000e+00  -1.8277077557064396e-06 1.4670325724797683e-07 0.0000000000000000e+00  -9.0045596136876915e-07 -2.6715105636528983e-08 0.0000000000000000e+00  -4.6295831299025539e-07 -8.3530923072083742e-08 0.0000000000000000e+00  -3.3504595386619348e-07 -4.3208813247702632e-08 0.0000000000000000e+00  -3.6914999215895316e-07 -9.1192388853985094e-08 0.0000000000000000e+00  -8.5669603316682314e-07 -6.8489541869737403e-08 0.0000000000000000e+00  -3.7215835311068473e-07 -5.9098521953373991e-08 0.0000000000000000e+00  -2.3734422679653886e-06 5.8997277355703752e-08 0.0000000000000000e+00  -5.3555917784855119e-07 1.0625169375294391e-07 0.0000000000000000e+00  2.0124966141343873e-06 -6.2563403935665530e-07 0.0000000000000000e+00  1.3094919336757449e-01 1.8767044812433291e-04 0.0000000000000000e+00  -3.1794145882889558e-07 -3.0130203619880503e-08 0.0000000000000000e+00  2.2681396046706728e-01 1.4467386995109783e-02 0.0000000000000000e+00  2.6483546145304471e-01 -3.8728942393293123e-02 0.0000000000000000e+00  1.0590841075245432e-01 5.2076782062930628e-03 0.0000000000000000e+00  3.0498813297787541e-01 1.0657091349438806e-01 0.0000000000000000e+00  2.0037309975976586e-01 1.1497192037723036e-02 0.0000000000000000e+00  3.5093747670474418e-01 -5.6349174475097324e-02 0.0000000000000000e+00  2.1961839511714004e-01 -3.9254745702777059e-02 0.0000000000000000e+00  6.9013286459526840e-02 4.6049976884750765e-02 0.0000000000000000e+00  2.0667727309258549e-01 2.6567798957539973e-04 0.0000000000000000e+00  2.0661965414572564e-01 -1.6290006560831238e-04 0.0000000000000000e+00  1.8560198328852776e-01 4.7426245904891117e-04 0.0000000000000000e+00  7.5234905162725088e-02 4.5501057700730267e-08 0.0000000000000000e+00  2.7319254375104912e-01 2.2775566547868648e-08 0.0000000000000000e+00  2.2017443973061168e-01 -1.8361982239140228e-04 0.0000000000000000e+00  2.4076294078862520e-01 7.2514132857264380e-02 0.0000000000000000e+00  1.6397748985574898e-01 -1.4211534392451932e-04 0.0000000000000000e+00  1.4178251591363497e-01 9.7983951678901164e-03 0.0000000000000000e+00  1.6795745810487295e-01 2.0551750656336767e-02 0.0000000000000000e+00  3.2174173525143129e-01 -2.7780489038091188e-02 0.0000000000000000e+00  1.8061885740993616e-01 -1.4950451060055618e-04 0.0000000000000000e+00  1.8829610706925240e-01 3.6173122935038242e-03 0.0000000000000000e+00  1.1729418458172144e-01 -5.1700374348261642e-02 0.0000000000000000e+00  3.9077453240146032e-01 -3.6989416030934814e-02 0.0000000000000000e+00  5.4399849181100024e-02 1.7251525059937236e-02 0.0000000000000000e+00  1.8540458578308563e-01 -5.6794264445049218e-05 0.0000000000000000e+00  2.5033725224587128e-01 -4.6973270358359714e-02 0.0000000000000000e+00  2.0886478901806610e-01 7.6165829272654825e-03 0.0000000000000000e+00  1.6438612386937590e-01 -1.6750844156016648e-02 0.0000000000000000e+00  1.7780698716941504e-02 -2.5428779665431851e-03 0.0000000000000000e+00  4.2620606123106719e-01 -3.6134927068901694e-02 0.0000000000000000e+00  -5.3262225196982554e-07 3.8294466623275729e-08 0.0000000000000000e+00  2.2834182568412667e-01 4.0064221660957917e-04 0.0000000000000000e+00  -9.4733460970086290e-07 -4.5872536663030464e-09 0.0000000000000000e+00  1.9617277775368500e-01 3.2602271653867760e-03 0.0000000000000000e+00  2.8639747923369946e-01 -3.4301095020208672e-02 0.0000000000000000e+00  2.5756535000676500e-01 -2.5346021699285324e-02 0.0000000000000000e+00  1.2569829002815375e-01 7.1179718949401269e-02 0.0000000000000000e+00  2.3110263500967246e-01 1.4843755871259755e-02 0.0000000000000000e+00  2.0878639973005705e-01 2.4391432113017433e-02 0.0000000000000000e+00  1.4757029035459751e-01 7.3970454162899754e-02 0.0000000000000000e+00  4.5645181747023561e-01 -1.3778134331071128e-02 0.0000000000000000e+00  7.6500890050120840e-02 2.2708447570395689e-02 0.0000000000000000e+00  -2.1610323463996480e-07 -9.4625690663587240e-08 0.0000000000000000e+00  1.4172545401366554e-01 -7.4248019255243014e-05 0.0000000000000000e+00  -1.6102262114772096e-06 1.0165419178343520e-09 0.0000000000000000e+00  -1.2976850668525646e-06 9.0881083396498933e-09 0.0000000000000000e+00  4.7240241831799576e-07 1.9084938017980177e-07 0.0000000000000000e+00  2.2863938978815393e-01 2.4134229165392877e-02 0.0000000000000000e+00  -1.9037113193185752e-06 -1.7983420928615473e-08 0.0000000000000000e+00  4.0384766465554278e-01 4.2399838858398466e-02 0.0000000000000000e+00  3.7437365476018436e-01 7.7306988452372188e-02 0.0000000000000000e+00  1.5082716546765537e-01 5.7571567419323301e-04 0.0000000000000000e+00  3.4359399790623640e-01 1.3134501256322487e-02 0.0000000000000000e+00  -1.3007302035035205e-06 -8.3970508022100314e-08 0.0000000000000000e+00  -8.1241516908592944e-08 -1.0831566901706849e-08 0.0000000000000000e+00  -7.0112896006606017e-07 -3.9600350290661238e-08 0.0000000000000000e+00  1.5620644604531478e-01 -1.3522986262564542e-04 0.0000000000000000e+00  1.0107184975984193e-01 -1.6651831694459451e-03 0.0000000000000000e+00  -3.0273329615075916e-07 -9.7543333120756239e-08 0.0000000000000000e+00  1.4646310253458444e-01 -2.5011943953780907e-02 0.0000000000000000e+00  1.5533893266225540e-01 1.4955593342555681e-01 0.0000000000000000e+00  3.9522104823937104e-01 -3.4536076580064995e-02 0.0000000000000000e+00  1.8966367734764379e-06 -7.7946721953938772e-08 0.0000000000000000e+00  1.1610187056825542e-01 4.7420772035836209e-02 0.0000000000000000e+00  2.5578171357734814e-01 -2.4244466185157694e-02 0.0000000000000000e+00  1.2735868925488555e-01 -3.6035064641523527e-02 0.0000000000000000e+00  -5.0566355019472007e-07 -7.7006517016998711e-08 0.0000000000000000e+00  1.7621579734373002e-02 1.3609097072817036e-02 0.0000000000000000e+00  2.2800499748776173e-01 8.9882451186483869e-03 0.0000000000000000e+00  2.6837255264610088e-01 -5.1876855831667394e-02 0.0000000000000000e+00  2.6751930761105402e-01 -8.9339096433994597e-02 0.0000000000000000e+00  1.5882741768144645e-01 4.9504028134921456e-03 0.0000000000000000e+00  1.5459065573505562e-01 -4.2471871572586979e-02 0.0000000000000000e+00  2.3876590212089518e-01 2.5011312352130818e-02 0.0000000000000000e+00  6.5262387641814024e-02 1.7760543424047183e-02 0.0000000000000000e+00  1.3349685573820269e-01 4.7924202951699470e-03 0.0000000000000000e+00  2.3749714424116247e-02 9.0998927693737644e-03 0.0000000000000000e+00  2.1188505685124934e-01 7.7396029034042064e-03 0.0000000000000000e+00  3.5768168947017259e-02 1.5570524967748243e-02 0.0000000000000000e+00  1.0127898147796707e-01 -2.0186210467777084e-02 0.0000000000000000e+00  -9.3126333224961527e-07 -1.0925085178595394e-07 0.0000000000000000e+00  -3.2151536480764406e-07 -4.0145426886110041e-08 0.0000000000000000e+00  -6.7283958893619626e-07 3.8031796710016682e-07 0.0000000000000000e+00  3.4778279855258987e-01 -3.8075524374734188e-02 0.0000000000000000e+00  7.8045066978659969e-02 3.1223216205370184e-02 0.0000000000000000e+00  -2.2529998436474028e-06 -1.0475751370942106e-07 0.0000000000000000e+00  -1.4592411561265337e-06 -1.9001466693490849e-07 0.0000000000000000e+00  1.3434882728146444e-01 7.8282270624728117e-03 0.0000000000000000e+00  2.1680936692572647e-01 1.7852425398768798e-03 0.0000000000000000e+00  -7.0092541912248088e-07 -7.1272737993744764e-09 0.0000000000000000e+00  -2.5979952453905469e-06 4.9075971121230086e-07 0.0000000000000000e+00  6.8946291212044021e-07 1.8400402941134679e-07 0.0000000000000000e+00  -1.3883214900948772e-07 -3.9533600321569396e-09 0.0000000000000000e+00  -8.6773708675635109e-08 1.2837496365530870e-09 0.0000000000000000e+00  3.8596531189670692e-07 -1.7926256776508475e-08 0.0000000000000000e+00  -2.2406152747342534e-06 -2.6811517430532744e-07 0.0000000000000000e+00  2.4408686699954026e-06 -5.6131472292699060e-07 0.0000000000000000e+00  -8.6675236519815593e-08 -8.7072873342519482e-08 0.0000000000000000e+00  -3.4192836676305438e-08 1.2241965264340786e-07 0.0000000000000000e+00  3.6601214558360181e-07 -4.7136419185534531e-08 0.0000000000000000e+00  -8.9474309353478105e-07 1.9735554494811060e-09 0.0000000000000000e+00  -2.7838528768160905e-07 1.2673184980464333e-09 0.0000000000000000e+00  3.9529320882601485e-02 8.7063171416863570e-03 0.0000000000000000e+00  9.0823044194430672e-02 -9.8588233702142855e-03 0.0000000000000000e+00  1.9831714585824192e-01 -1.9404131870115259e-02 0.0000000000000000e+00  1.3424916800230668e-01 3.3892987423661315e-03 0.0000000000000000e+00  2.9160274244527912e-01 7.5804883458102851e-02 0.0000000000000000e+00  3.3737046847368707e-01 5.3548424191628564e-02 0.0000000000000000e+00  3.1541122189312226e-01 2.6272353091526812e-02 0.0000000000000000e+00  1.4660483557430759e-01 -6.0157444022241169e-05 0.0000000000000000e+00  2.2827696551325050e-01 1.6003071422895965e-02 0.0000000000000000e+00  3.0672092606686696e-01 -8.3823919631523483e-02 0.0000000000000000e+00  7.4778147144410390e-02 -6.4227360180480050e-04 0.0000000000000000e+00  2.2874710315956856e-01 -1.6490846766149898e-04 0.0000000000000000e+00  2.2932330575703014e-01 -2.2819841926191415e-04 0.0000000000000000e+00  2.1815843336438442e-01 -2.2197029455941862e-04 0.0000000000000000e+00  2.2596144911741084e-01 -2.1272432854938676e-05 0.0000000000000000e+00  1.2973440203956149e-01 1.8911905345262055e-05 0.0000000000000000e+00  1.3853012168523468e-01 -8.4587056041673982e-05 0.0000000000000000e+00  1.9853974297036162e-01 1.9048548512994426e-01 0.0000000000000000e+00  4.0199021398328927e-02 4.5085192781238626e-02 0.0000000000000000e+00  1.1011489045219083e-01 -1.3261395090146554e-02 0.0000000000000000e+00  2.1974563567906158e-01 -4.8399898664421119e-03 0.0000000000000000e+00  1.9306659111204810e-01 9.7622421096223589e-03 0.0000000000000000e+00  2.2324753463950403e-01 8.1835125002412672e-03 0.0000000000000000e+00  2.9120155804912795e-01 -7.0391631882884706e-02 0.0000000000000000e+00  2.1556956766186133e-01 -2.1685820460644534e-04 0.0000000000000000e+00  1.0292543596273440e-01 1.1134547738518649e-02 0.0000000000000000e+00  2.4146402552135957e-01 1.6938073626021382e-02 0.0000000000000000e+00  3.3714238280178183e-01 -7.7349849207652144e-02 0.0000000000000000e+00  1.3407238290448709e-01 6.5257848804420218e-04 0.0000000000000000e+00  2.1822093632542824e-01 2.0268253485191761e-03 0.0000000000000000e+00  1.3201792647608721e-01 -2.6500553582223990e-05 0.0000000000000000e+00  1.6292315843747665e-01 7.6474916811450633e-02 0.0000000000000000e+00  2.4651471181663936e-01 1.3036806405427051e-01 0.0000000000000000e+00  2.1988055548301613e-01 3.1074958601356079e-02 0.0000000000000000e+00  1.4125647588799459e-01 -1.4193176965646752e-02 0.0000000000000000e+00  2.8340474415334693e-01 -4.1485373781933448e-02 0.0000000000000000e+00  2.3467997260866483e-01 -4.9195964163834427e-02 0.0000000000000000e+00  3.9251504414347926e-01 1.7994707824904196e-02 0.0000000000000000e+00  2.1631614955565034e-01 9.9603113624638639e-03 0.0000000000000000e+00  1.8702298533817582e-01 -1.2271065089474438e-02 0.0000000000000000e+00  3.4034594322090228e-01 1.8341661509505580e-01 0.0000000000000000e+00  2.7775429006109803e-01 3.6353445359723215e-02 0.0000000000000000e+00  2.3155282340637381e-01 7.2385692803945884e-02 0.0000000000000000e+00  2.2936769058469675e-01 1.5614968309686519e-03 0.0000000000000000e+00  2.0032657257091355e-01 -1.1985869165292084e-04 0.0000000000000000e+00  2.1998265339829207e-01 -8.3467909339931729e-05 0.0000000000000000e+00  2.9790441643331761e-01 -3.7900885127463785e-02 0.0000000000000000e+00  1.2559003386665957e-01 2.5521093286588529e-02 0.0000000000000000e+00  1.0045789075392964e-01 7.6604930544908242e-03 0.0000000000000000e+00  2.1017790812588538e-01 2.1540993761606834e-02 0.0000000000000000e+00  1.5824713437278812e-01 4.9456476177160397e-02 0.0000000000000000e+00  2.4206381536674326e-01 7.8076400685253144e-04 0.0000000000000000e+00  1.5479389111287101e-01 -7.1032066643861129e-04 0.0000000000000000e+00  4.9143319798309798e-02 -2.3350717935593304e-02 0.0000000000000000e+00  4.6267199145064036e-01 4.2650106608774156e-02 0.0000000000000000e+00  1.1420245684972422e-01 -1.1780556368798508e-02 0.0000000000000000e+00  3.4721079026348844e-01 -2.7611806394778615e-02 0.0000000000000000e+00  2.0505216392753692e-01 -1.0620089691531702e-04 0.0000000000000000e+00  2.3724604240740596e-01 -1.2016836216928941e-02 0.0000000000000000e+00  1.9020345448435225e-01 1.7804918968707055e-02 0.0000000000000000e+00  2.1347886682318415e-01 2.6031574186777207e-02 0.0000000000000000e+00  1.8666186314236236e-01 -6.9486223519737600e-02 0.0000000000000000e+00  1.7461067493620232e-02 6.0947224027494652e-03 0.0000000000000000e+00  1.0441013994913212e-01 9.6493482825433542e-04 0.0000000000000000e+00  1.8790437251913976e-02 -1.5605074552701652e-02 0.0000000000000000e+00  9.4499051650497337e-02 1.4669005114575881e-02 0.0000000000000000e+00  6.2765827865059409e-02 1.7616594831771571e-02 0.0000000000000000e+00  1.9906775668446275e-01 -1.0536415492071470e-04 0.0000000000000000e+00  1.1027116101352859e-01 -7.1362883747722069e-05 0.0000000000000000e+00  4.0269453903905300e-01 -4.0482410917062672e-02 0.0000000000000000e+00  2.2135241921305507e-01 4.3860134828772107e-03 0.0000000000000000e+00  2.0726090923208854e-01 9.1863601048005404e-05 0.0000000000000000e+00  3.5785430766426464e-02 8.2065141808052262e-08 0.0000000000000000e+00  7.7715352451781364e-02 1.5998514202897274e-02 0.0000000000000000e+00  1.5902959219842730e-01 4.2026138147773853e-02 0.0000000000000000e+00  2.2409989135795147e-01 -6.3460855625443508e-05 0.0000000000000000e+00  2.0957074896291689e-01 8.2659608020961978e-03 0.0000000000000000e+00  1.5984995642525771e-01 -8.7270289272610505e-03 0.0000000000000000e+00  3.2130680270971251e-01 -3.6120412740787221e-02 0.0000000000000000e+00  3.8096034243711219e-01 3.5622313784627171e-02 0.0000000000000000e+00  1.3770863850217840e-01 4.3121893130274652e-03 0.0000000000000000e+00  1.0065411476813367e-01 9.1153708228296237e-04 0.0000000000000000e+00  1.1377562435101385e-01 -3.2633211232736242e-05 0.0000000000000000e+00  -7.8095595789169732e-03 1.3917065688931397e-02 0.0000000000000000e+00  3.3356378958012928e-01 3.5118117030025635e-08 0.0000000000000000e+00  6.5599786470760424e-02 4.6460367660866152e-03 0.0000000000000000e+00  3.9160514557185461e-01 3.2721490046342758e-03 0.0000000000000000e+00  1.1822551673625410e-01 -9.3551339528405607e-05 0.0000000000000000e+00  3.0690914631739952e-01 -5.3891903684813107e-02 0.0000000000000000e+00  1.1852650526867763e-01 -2.6288418341826139e-08 0.0000000000000000e+00  2.2012760000188888e-01 -8.0674164176345106e-05 0.0000000000000000e+00  1.1356125437943085e-01 -1.6883341976318629e-05 0.0000000000000000e+00  2.1733314990437197e-01 -2.3148501148076971e-08 0.0000000000000000e+00  1.1416259564804254e-01 1.2407182602236247e-04 0.0000000000000000e+00  1.7054083790326027e-01 2.1463814515755412e-02 0.0000000000000000e+00  2.2559609381125303e-01 -1.3417603132984254e-04 0.0000000000000000e+00  5.6754120617958530e-02 -2.1823108638821195e-02 0.0000000000000000e+00  8.6871661449489934e-02 -9.1620025510109043e-03 0.0000000000000000e+00  2.0005602217926946e-01 -4.2855185503071887e-02 0.0000000000000000e+00  -1.6827416955992137e-02 4.1313900910810910e-03 0.0000000000000000e+00  3.1219892304786373e-01 -1.6573027132173627e-02 0.0000000000000000e+00  2.8501962717079071e-01 -1.7153706856563759e-02 0.0000000000000000e+00  4.0879966279234603e-01 -4.6334626534562384e-02 0.0000000000000000e+00  1.1354881223844032e-01 3.0984159344323394e-03 0.0000000000000000e+00  2.7470521623505045e-01 -3.2266457122492487e-02 0.0000000000000000e+00  2.7914922386595431e-01 -1.6576202793701873e-02 0.0000000000000000e+00  1.9283413834784688e-01 -1.7479416779870563e-04 0.0000000000000000e+00  2.2436638119683530e-01 -7.4968867164420944e-02 0.0000000000000000e+00  8.5962388382649246e-02 -4.4333613074921840e-05 0.0000000000000000e+00  1.8472273059341110e-01 -8.5414572678946983e-03 0.0000000000000000e+00  3