<?xml version="1.0"?>
<VTKFile type="UnstructuredGrid"  version="0.1"  >
<UnstructuredGrid>
<Piece  NumberOfPoints="1404" NumberOfCells="2604">
<Points>
<DataArray  type="Float64"  NumberOfComponents="3"  format="ascii">0 0.41 0  0 0 0  2.2 0 0  2.2 0.41 0  0.2353553390593274 0.2353553390593274 0  0.25 0.2 0  0.2353553390593274 0.1646446609406726 0  0.2 0.15 0  0.1646446609406726 0.1646446609406726 0  0.15 0.2 0  0.1646446609406726 0.2353553390593274 0  0.2 0.25 0  0.6923879532511287 0.188268343236509 0  0.7 0.15 0  0.6923879532511287 0.1117316567634909 0  0.6707106781186547 0.07928932188134523 0  0.6382683432365089 0.05761204674887133 0  0.6 0.04999999999999999 0  0.5617316567634909 0.05761204674887134 0  0.5292893218813453 0.07928932188134524 0  0.5076120467488713 0.111731656763491 0  0.5 0.15 0  0.5076120467488713 0.188268343236509 0  0.5292893218813453 0.2207106781186547 0  0.561731656763491 0.2423879532511287 0  0.6 0.25 0  0.6382683432365089 0.2423879532511287 0  0.6707106781186547 0.2207106781186547 0  1.1 0 0  0 0.205 0  1.1 0.41 0  0.55 0 0  0.55 0.41 0  0.275 0 0  0.8250000000000001 0 0  0.275 0.41 0  0.8250000000000001 0.41 0  0.6875 0 0  0.61875 0 0  1.65 0.41 0  1.65 0 0  1.375 0 0  1.375 0.41 0  1.925 0 0  1.925 0.41 0  1.5125 0.205 0  1.7875 0.205 0  0.9625000000000001 0.205 0  1.2375 0.205 0  2.2 0.205 0  1.99375 0.2152743902439024 0  0.4125 0.41 0  2.0625 0 0  2.0625 0.41 0  2.2 0.3075 0  1.7875 0.41 0  1.375 0.1486128048780488 0  1.5125 0 0  1.7875 0 0  1.5125 0.41 0  0.9625000000000001 0.41 0  0.4125 0 0  0.1375 0 0  0.1375 0.41 0  0.6875 0.41 0  0.9625000000000001 0 0  1.2375 0 0  1.1 0.1486128048780488 0  1.2375 0.41 0  1.65 0.1486128048780487 0  0.823495464168302 0.2603780552348366 0  0.3738707794507017 0.2720196349488618 0  0.3662291281331582 0.1311456406657909 0  1.676715909090909 0.2793064024390244 0  1.126715909090909 0.2793064024390244 0  1.348284090909091 0.2793064024390244 0  0.8287581077665108 0.1302150898054257 0  1.894702181800738 0.1282910975492754 0  2.092797818199262 0.1282910975492754 0  1.85625 0.3075 0  0 0.3075 0  0 0.1025 0  2.099172119769978 0.25625 0  0.4752414543992246 0.3180372603390748 0  1.99375 0.08395950269330846 0  1.459960956013612 0.3075 0  1.569025960719943 0.2986889805672169 0  1.03125 0.3278689922742084 0  1.959375 0.3126371951219512 0  1.749222215368287 0.1025 0  1.275777784631713 0.1025 0  0.9228016959331474 0.3075 0  1.000777784631713 0.1025 0  2.2 0.1025 0  1.225938124459196 0.3075 0  1.550777784631713 0.1025 0  1.44375 0.07430640243902442 0  1.16875 0.07430640243902439 0  0.7562500000000001 0.3358727844323386 0  0.89375 0 0  1.899250267340833 0.2229966846119207 0  0.61875 0.41 0  1.766482954545455 0.2934032012195123 0  1.046078563095834 0.2389031808701145 0  1.421109702350723 0.2261157654379721 0  0.07567171807980319 0.25625 0  0.2511897295290552 0.3235829392832554 0  0.07655002503762308 0.1488653460959645 0  0.1377245246847496 0.3206030474919778 0  0.6694099692696568 0.3242771941727899 0  0.9168971191497528 0.1295727156104653 0  0.7562500000000001 0 0  2.118919042110979 0.3422084711244843 0  2.13125 0 0  0.06875000000000001 0 0  1.30625 0.41 0  1.597888256393107 0.2173787389261347 0  0.34375 0.41 0  0.2493272016354703 0.08091360081773515 0  0.5588896233436766 0.3264056208677571 0  1.829299675393195 0.07400700849299596 0  0.1334079128307869 0.08523463035786674 0  1.71875 0.41 0  0.06875000000000001 0.41 0  1.16875 0.41 0  2.038220665644273 0.332420740103091 0  0.8810647413215221 0.2027360103977071 0  0.34375 0 0  0.7453891198966415 0.2471459041008237 0  0.42112093004955 0.1988123139090554 0  0.8314023090855964 0.3351170841770613 0  0.89375 0.41 0  0.7906250000000001 0.06615386481594063 0  1.452769549894695 0.1548122580621249 0  1.369219062229598 0.07430640243902442 0  1.30625 0 0  1.07420695807087 0.07430640243902439 0  1.720943423819132 0.1714577452753128 0  1.157188124459196 0.205 0  1.304056576180868 0.1714577452753128 0  1.67579304192913 0.07430640243902437 0  1.209670467133757 0.136210026696477 0  0.4312800784902823 0.08036147352247747 0  0.8723959680194693 0.07066860609690805 0  1.025335513626278 0.1700681449722324 0  0.7945632284247136 0.1940204203251442 0  0.378125 0.3452261501101892 0  0.3307109909790086 0.2037165635083759 0  0.3009701032039409 0.2702970083403109 0  0.20625 0.41 0  1.58125 0 0  0.4812500000000001 0 0  0.9838963872396855 0.2722244191167347 0  0.06772484939107212 0.3260067317374387 0  0.20625 0 0  1.58125 0.41 0  1.631724228912893 0.3381867502687533 0  1.825608881788174 0.14499488549201 0  1.85625 0 0  1.44375 0 0  1.44375 0.41 0  1.85625 0.41 0  2.13125 0.41 0  0.7562500000000001 0.41 0  0.4812500000000001 0.41 0  1.16875 0 0  1.03125 0.41 0  1.03125 0 0  1.71875 0 0  1.99375 0 0  1.99375 0.41 0  0.9408708167433545 0.0651989315768642 0  1.340625 0.3489494290853124 0  1.134375 0.3489494290853123 0  1.700180620188976 0.3438659752031281 0  0.29668452290037 0.1318471691375986 0  0.3175441051360096 0.06496934809856265 0  0.06509151636162461 0.08140814015999148 0  2.135782184673599 0.07126652247502523 0  1.668441847249787 0.2129203728327609 0  1.295782514339747 0.2378437748815763 0  1.409375 0.3520314716057996 0  2.129248544730567 0.1906135162504124 0  2.060771381434487 0.1989445750470348 0  2.013252586573865 0.1496169464686054 0  1.942766402200229 0.1734448904596831 0  1.895522487186454 0.06076163953489683 0  2.069553871656643 0.06605731020975725 0  0.4670911801404742 0.2498408582391372 0  0.7622743084658112 0.1264100838268133 0  1.274680914880868 0.3520219391081363 0  0.3148669572599245 0.3331753056385887 0  1.614713220494657 0.09473434380863296 0  1.72990325744076 0.2380068107952482 0  1.356580098625191 0.2120393231351682 0  2.034370752044885 0.2668681600792073 0  1.51768709249349 0.3426260931494756 0  1.561883724969884 0.1650446847858835 0  1.197344062229598 0.2523725417393646 0  1.804085235518364 0.3468178408964637 0  1.817887819205233 0.2589243285818559 0  1.905897727272727 0.3485060975609756 0  0.7296439733931823 0.06337466644369745 0  0.4250935971865949 0.1394919578475796 0  0.3773030136511669 0.05130372097998036 0  1.192836486056382 0.3562350748565544 0  1.1029124365364 0.226143510831178 0  1.28257088594801 0.2944411014911587 0  0.1905185804731426 0.06029880676029167 0  1.474860187679412 0.2504218616229368 0  1.406767003493824 0.2829282258560709 0  0.5209826960981064 0.2830664557824064 0  0.5131119502780163 0.3617405848213254 0  0.1948220106098172 0.3081993407644811 0  1.845656689180403 0.1998310418452388 0  2.144958525570388 0.2909790873294231 0  2.2 0.15375 0  0.8833025251326762 0.2625402923007629 0  0.171875 0.3653875762360952 0  1.57794966442982 0.3540357145964566 0  0.446875 0.366068291212731 0  0.4272051715206439 0.2891929346190664 0  1.508991196088596 0.1421783375065625 0  1.50436820029908 0.06143401634903343 0  1.223857000523521 0.08235548624535324 0  0.6137904613287555 0.3066826366281556 0  1.153316824384777 0.1289850171317838 0  0.9751573703656133 0.327632618473408 0  2.148922302309752 0.1258841779285271 0  0.9281250000000001 0.3643758685795699 0  1.621993280276081 0.2841214267927899 0  1.550118654119087 0.2461998729100966 0  1.327182649291491 0.1216967252533594 0  0.9939955742738924 0.04663549843168518 0  1.753125 0.04556020050186112 0  1.271875 0.04556020050186116 0  0.9734326767716519 0.1506854560854393 0  0.103125 0.3675775577080512 0  1.94956388244759 0.1180512551534177 0  1.949997712993411 0.04965831614304109 0  0.717433898748555 0.295596016333797 0  1.771961817615021 0.1530278789497521 0  1.909246823951428 0.2812757146784527 0  0 0.35875 0  1.050632804931928 0.1226269704412814 0  0.05695108326502596 0.2024009637347154 0  1.948575539857022 0.2445328248721197 0  1.697271520964565 0.1233917627620729 0  1.065625 0.3689344961371042 0  1.085849084308977 0.3170853572226867 0  0.1015495998772944 0.04226029099983852 0  1.577403511714593 0.05463601888079143 0  1.751571320346033 0.3651102912045228 0  2.2 0.35875 0  0.7441773632462837 0.1786786606458751 0  0 0.05125 0  1.466879772203159 0.3611261772912453 0  0.6282230348858767 0.3577675483994025 0  1.990280163552011 0.3564754268533217 0  1.17471064520912 0.2990917256188288 0  0 0.25625 0  2.2 0.25625 0  2.2 0.05125 0  0 0.15375 0  1.853978576207987 0.35875 0  1.515638456102889 0.2882700110184686 0  2.150453692751374 0.2387066338105111 0  1.323782677156475 0.04897634338873398 0  1.409375 0.03715320121951221 0  1.406484531114799 0.1087852750766809 0  1.134375 0.03715320121951219 0  0.721875 0.3729363922161693 0  0.7941695928236929 0.3696489254637395 0  0.7934827162619036 0.3013409431456604 0  1.627401732573545 0.04552157221025036 0  0.9352049974617431 0.2507047965699472 0  0.8763260682738339 0.3611103317460093 0  2.045405893604797 0.1105340662939892 0  1.255408269734577 0.1577307500159216 0  2.028125 0.03707597992059326 0  1.003030137506755 0.3689344961371042 0  1.248258025468107 0.2565907092181813 0  1.203125 0.03661323374043041 0  0.4800125512335631 0.0549472816999725 0  2.072662025974815 0.2975086504196739 0  0.240625 0.3729825336867542 0  1.113252391110535 0.10238286244357 0  1.071052763974265 0.1885202618768825 0  0.8738809401657862 0.3106483608284829 0  0.6786819423003397 0.2677558482644021 0  1.887722846421017 0.1760882698830035 0  1.472640588990488 0.1118278026240017 0  0.5843750000000001 0.41 0  1.865937103925594 0.2604137786483804 0  1.463913572748262 0.2030442564990043 0  1.376426316059077 0.3186741374914345 0  0.1038643885363755 0.2162701735320032 0  0.1769473813227781 0.1070849728467114 0  0.458787839809176 0.171541653775316 0  0.240625 0 0  0.04179569703428024 0.2877217852556549 0  0.1258346557601885 0.2699740073054968 0  1.722140693354707 0.282908100935778 0  0.41206179117512 0.2448172567039922 0  0.3702471778075604 0.2265217604228704 0  0.3714881805374215 0.1786967818665642 0  1.77397096061971 0.2481483237422926 0  2.105123889160691 0.03743885948498647 0  1.001138337938679 0.229719337663998 0  1.051242910646791 0.2854826559431138 0  1.395420985247586 0.18
[...]
<PointData  Vectors="f_37"> 
<DataArray  type="Float64"  Name="f_37"  NumberOfComponents="3" format="ascii">2.2450206835251184e-07 1.2745012296403989e-08 0.0000000000000000e+00  -4.4812783213368347e-06 -3.2389144904515743e-07 0.0000000000000000e+00  -7.7419940059173995e-07 9.8391701838541583e-10 0.0000000000000000e+00  -1.0004409779306606e-06 -3.9313524433657061e-10 0.0000000000000000e+00  -5.8002712243982268e-07 1.0435674849737656e-06 0.0000000000000000e+00  -2.1352756490324082e-07 1.0128720917943510e-06 0.0000000000000000e+00  2.6415150870472909e-07 4.3727747178904342e-07 0.0000000000000000e+00  -1.3475762483152369e-06 -5.2755710001564783e-07 0.0000000000000000e+00  -1.5493936265838678e-06 2.3290479219682848e-07 0.0000000000000000e+00  2.0798445032496777e-07 7.7766767388657917e-08 0.0000000000000000e+00  -6.8350719908074782e-07 -4.3899349144488187e-07 0.0000000000000000e+00  -9.9304313472554178e-07 -3.1712082222036350e-07 0.0000000000000000e+00  1.0713191705452901e-06 -9.6201258999613371e-07 0.0000000000000000e+00  -6.5409301351686615e-07 -2.6792594062537565e-06 0.0000000000000000e+00  -8.7374779215164678e-07 -1.4467694488066462e-06 0.0000000000000000e+00  -2.3110042894022650e-06 1.3050896030207583e-07 0.0000000000000000e+00  1.6726243878181311e-06 1.4152868259729378e-06 0.0000000000000000e+00  3.2059081604248324e-01 8.9753467037813089e-02 0.0000000000000000e+00  6.0390600018813119e-06 3.8757490263161506e-06 0.0000000000000000e+00  6.5950046309860137e-06 1.0662255344262306e-08 0.0000000000000000e+00  -2.3887581317452270e-06 -2.0557436680341842e-06 0.0000000000000000e+00  -8.5260313807202369e-08 2.7113786292414115e-06 0.0000000000000000e+00  3.5868732888771221e-06 2.6737868970075843e-06 0.0000000000000000e+00  2.9133185577022763e-06 -3.9929535138776218e-06 0.0000000000000000e+00  -3.4031155678781943e-06 -4.6799486036684861e-06 0.0000000000000000e+00  -6.3131996184973947e-06 -1.5438108231076320e-06 0.0000000000000000e+00  -4.9714112529658794e-06 -4.8685772061196810e-08 0.0000000000000000e+00  7.6764672081742039e-07 -1.1758137070841142e-07 0.0000000000000000e+00  -2.7950247717467528e-06 3.9570251131219197e-07 0.0000000000000000e+00  1.6583339383285342e-01 -2.7201357113141033e-07 0.0000000000000000e+00  -1.7037320332716606e-06 -2.3006448318006512e-07 0.0000000000000000e+00  5.7008329170315609e-06 3.6507353170459907e-06 0.0000000000000000e+00  -1.5331128465576380e-06 1.7831966085908410e-08 0.0000000000000000e+00  3.7769960931815136e-07 1.1983953256833358e-07 0.0000000000000000e+00  1.9332204873744198e-06 -4.2297961176948826e-07 0.0000000000000000e+00  -9.7819248408416909e-07 1.9048872875341881e-07 0.0000000000000000e+00  -8.9476540681977381e-07 2.9304881146873616e-08 0.0000000000000000e+00  -2.3697963159868879e-06 -5.0878001978588156e-07 0.0000000000000000e+00  -8.5685098315470206e-06 -1.4337390263534651e-07 0.0000000000000000e+00  -1.1345586289113900e-06 -1.3251128699199657e-09 0.0000000000000000e+00  -1.4685615379996045e-06 -2.3568507472144585e-09 0.0000000000000000e+00  -7.1764647619611804e-07 -1.0824565458178742e-08 0.0000000000000000e+00  -5.2899854132241297e-07 -1.1878387939289833e-08 0.0000000000000000e+00  -6.1583787748008320e-07 -1.7006068323163512e-10 0.0000000000000000e+00  -1.2378603778093102e-07 -6.4988833588777567e-10 0.0000000000000000e+00  2.0889820409831467e-01 3.8511745039133456e-04 0.0000000000000000e+00  2.0889429683539676e-01 6.3473748622247967e-05 0.0000000000000000e+00  2.4999214218545046e-01 -1.1708376134587281e-01 0.0000000000000000e+00  2.1153450779475216e-01 -4.5394693825663466e-03 0.0000000000000000e+00  2.0891335228318367e-01 -7.2086195135003617e-06 0.0000000000000000e+00  2.0885189148636807e-01 1.0648160213501208e-05 0.0000000000000000e+00  5.3991375023791082e-07 7.3869052471944618e-08 0.0000000000000000e+00  8.7445859624294694e-08 9.2491300779962702e-10 0.0000000000000000e+00  -6.8832863156693507e-07 1.4826642242432024e-09 0.0000000000000000e+00  1.9242784206618177e-01 -1.7055403577450898e-06 0.0000000000000000e+00  -9.8518972400169841e-07 -8.0297073028994543e-10 0.0000000000000000e+00  2.0655629189398603e-01 2.5294445683223964e-04 0.0000000000000000e+00  -1.4472786217761900e-06 -5.0558110391098745e-09 0.0000000000000000e+00  -1.1909455322287670e-06 -1.0520270192875718e-09 0.0000000000000000e+00  -7.6435067677692652e-07 -5.1159166706921456e-09 0.0000000000000000e+00  1.9972011424665049e-06 4.8854270863304435e-07 0.0000000000000000e+00  -2.7935553778124167e-07 -2.7605962095159392e-07 0.0000000000000000e+00  -9.7320815487020352e-07 -7.8869852265475435e-08 0.0000000000000000e+00  -5.8445051722992944e-08 -6.4191165117229491e-08 0.0000000000000000e+00  -1.7863663653144165e-06 -2.0772853483324147e-07 0.0000000000000000e+00  -1.5426696859536355e-06 3.6604477591320673e-07 0.0000000000000000e+00  7.1551730316225080e-07 3.6553198092376493e-08 0.0000000000000000e+00  1.9249063400777108e-01 -4.5273645461457353e-02 0.0000000000000000e+00  -9.9429332668191244e-07 -4.8988706841830367e-08 0.0000000000000000e+00  2.0669531529005741e-01 1.6114576706741213e-04 0.0000000000000000e+00  3.3008036781575589e-01 -7.0376459688633666e-02 0.0000000000000000e+00  9.2199111273624026e-02 3.1958271960188531e-03 0.0000000000000000e+00  3.1334426063153159e-01 1.2009018242420996e-01 0.0000000000000000e+00  2.0345976552945033e-01 1.2705220384898004e-04 0.0000000000000000e+00  2.2440386687469732e-01 -3.6201623182106611e-03 0.0000000000000000e+00  2.0368736242694269e-01 7.1804216000123330e-04 0.0000000000000000e+00  3.5015233099660314e-02 5.0564481193778404e-02 0.0000000000000000e+00  2.0294999621149479e-01 2.9369901150792326e-05 0.0000000000000000e+00  2.0290483897784808e-01 9.0333200643735978e-06 0.0000000000000000e+00  1.9240797446691502e-01 2.1606559004071747e-05 0.0000000000000000e+00  7.5234885964898301e-02 -7.4471671099165207e-09 0.0000000000000000e+00  2.7319257235966476e-01 1.4898841663923394e-07 0.0000000000000000e+00  2.0716639484949517e-01 2.4521547543013857e-06 0.0000000000000000e+00  2.4267228198359755e-01 8.1076324645747502e-02 0.0000000000000000e+00  1.7809589477415816e-01 5.2970231089074228e-06 0.0000000000000000e+00  1.9194144637433302e-01 4.8713711555101841e-04 0.0000000000000000e+00  1.9678340569043146e-01 2.5838961946153630e-04 0.0000000000000000e+00  1.9517764872618576e-01 -1.2105107246333799e-02 0.0000000000000000e+00  1.8915882815100424e-01 1.2215747220968462e-06 0.0000000000000000e+00  1.9249986557732623e-01 4.9061904244531381e-05 0.0000000000000000e+00  1.9160239766490272e-01 -1.0448322569345191e-03 0.0000000000000000e+00  3.4564487824898787e-01 -8.1532902209883198e-02 0.0000000000000000e+00  1.0229452881351089e-01 -5.2961428198583141e-02 0.0000000000000000e+00  1.9241403785906774e-01 -4.0152102915249566e-06 0.0000000000000000e+00  1.9343103717541721e-01 2.0852672199812286e-03 0.0000000000000000e+00  1.9265747861057264e-01 2.6642622249052486e-04 0.0000000000000000e+00  1.6832166378810945e-01 3.9771772354175344e-04 0.0000000000000000e+00  1.6042140387843340e-01 -6.8383722088961093e-03 0.0000000000000000e+00  4.3014449682197436e-01 -5.4755178965894970e-02 0.0000000000000000e+00  1.2951580125520845e-06 -2.4893888177403159e-07 0.0000000000000000e+00  2.0875839011443306e-01 2.5982982033789024e-05 0.0000000000000000e+00  -1.0756421440478704e-06 -1.0366044954747402e-07 0.0000000000000000e+00  1.9913749844899631e-01 6.7418321277152964e-05 0.0000000000000000e+00  2.7874446533630798e-01 -6.6116629009593780e-02 0.0000000000000000e+00  2.0874134594759022e-01 4.6292467763945857e-04 0.0000000000000000e+00  1.2548050765590207e-01 7.0227693663375085e-02 0.0000000000000000e+00  2.3075466152292304e-01 1.8390936307894311e-02 0.0000000000000000e+00  2.0901748044793117e-01 2.3726850582030851e-02 0.0000000000000000e+00  1.4766172744549302e-01 7.1963168385645856e-02 0.0000000000000000e+00  4.6713979728523530e-01 -2.2276395529864219e-02 0.0000000000000000e+00  5.9907841767711856e-02 -3.2725263569459408e-02 0.0000000000000000e+00  5.6865506400329517e-07 -3.4805135156181665e-07 0.0000000000000000e+00  1.5906266786951767e-01 3.8756699192984587e-06 0.0000000000000000e+00  -1.8740685895198094e-06 -3.9377908022271993e-09 0.0000000000000000e+00  -1.3885026443250391e-06 1.5697224311968710e-08 0.0000000000000000e+00  -5.2240345674696914e-07 -6.5807932094073197e-09 0.0000000000000000e+00  2.0880073476750532e-01 2.5763241691139743e-04 0.0000000000000000e+00  -2.1251029615592000e-06 -1.7921266386522827e-07 0.0000000000000000e+00  4.0458444225014495e-01 4.5884632139094550e-02 0.0000000000000000e+00  3.8875263092196499e-01 8.4136196244200198e-02 0.0000000000000000e+00  1.6725877478927967e-01 1.8803122523686044e-06 0.0000000000000000e+00  3.4419609709244597e-01 1.3022514077891461e-02 0.0000000000000000e+00  -1.1938368338677374e-06 -1.2664946704130824e-09 0.0000000000000000e+00  -1.4836055662943925e-07 -1.2093318341928908e-07 0.0000000000000000e+00  -1.9792161783894285e-06 -1.4036255242017629e-07 0.0000000000000000e+00  1.7139416705765539e-01 -3.8162499625554424e-06 0.0000000000000000e+00  1.8165389040286839e-01 -5.6549551192119366e-02 0.0000000000000000e+00  -4.3989119843845941e-07 -8.1532233396156201e-08 0.0000000000000000e+00  1.7014422183567390e-01 -2.4931323926165636e-02 0.0000000000000000e+00  1.7703450831943257e-01 1.7204181421968606e-01 0.0000000000000000e+00  3.7295520466660909e-01 -6.1683006775133803e-02 0.0000000000000000e+00  2.1251102552477531e-06 2.5148039605059431e-08 0.0000000000000000e+00  8.4876997314510705e-02 4.8231327518630941e-02 0.0000000000000000e+00  2.0737265440546704e-01 4.6534232323274910e-04 0.0000000000000000e+00  1.6863777673564309e-01 4.5914748528323534e-04 0.0000000000000000e+00  2.4399028564091847e-07 -2.5922353031590891e-09 0.0000000000000000e+00  1.3125012708613881e-01 -2.3624682784656480e-02 0.0000000000000000e+00  2.0831486686808656e-01 9.9353645584662981e-05 0.0000000000000000e+00  2.1961478164669729e-01 -1.8425107655139737e-02 0.0000000000000000e+00  2.0814275486269668e-01 -1.2154060935747016e-03 0.0000000000000000e+00  1.6766873715215225e-01 7.6008823816931401e-05 0.0000000000000000e+00  2.0088231426288053e-01 -8.1467244808709604e-03 0.0000000000000000e+00  2.1986201144580922e-01 2.6398661056869908e-02 0.0000000000000000e+00  3.9385382309935456e-02 9.4391640501989716e-03 0.0000000000000000e+00  1.9523990331344077e-01 -9.3405382137499771e-02 0.0000000000000000e+00  5.3446246830197566e-02 3.3494377484684118e-02 0.0000000000000000e+00  2.1252313411250301e-01 5.8234750827531063e-03 0.0000000000000000e+00  4.6112013521910369e-02 1.4173176561982472e-02 0.0000000000000000e+00  9.2423524626324582e-02 -2.3661035745637087e-02 0.0000000000000000e+00  -3.3961100856207742e-07 2.0063966661970665e-07 0.0000000000000000e+00  -6.4550929182117529e-07 -4.0889250338841579e-09 0.0000000000000000e+00  2.2757608153293947e-07 1.6567285860989392e-07 0.0000000000000000e+00  3.2741025070960300e-01 -8.7998266637301759e-02 0.0000000000000000e+00  7.8027419104283277e-02 3.0492962222360184e-02 0.0000000000000000e+00  -2.2929964490772960e-06 -9.5159807946913829e-08 0.0000000000000000e+00  -8.3687879423576403e-07 -2.0696552964956463e-09 0.0000000000000000e+00  1.6425964237039742e-01 1.0803249815665324e-04 0.0000000000000000e+00  2.0612793735777896e-01 3.5700534197855764e-05 0.0000000000000000e+00  -8.4790014051589647e-07 2.1537869798848174e-10 0.0000000000000000e+00  -1.0042639585002875e-06 -8.6205818909930576e-09 0.0000000000000000e+00  -1.0341428215526274e-06 -9.7853443430151605e-09 0.0000000000000000e+00  -2.1906999151028397e-07 2.0673204650903188e-10 0.0000000000000000e+00  -1.7997743846454431e-07 -4.6298015621108284e-10 0.0000000000000000e+00  1.1966741870545544e-06 -1.9889156198752652e-07 0.0000000000000000e+00  -2.6181061265199045e-06 -7.2341790371797449e-09 0.0000000000000000e+00  -1.0835250462041073e-06 2.2540739926693332e-07 0.0000000000000000e+00  1.3411738189632000e-06 3.5552072769177836e-07 0.0000000000000000e+00  -2.9055487842849824e-06 3.1805892950125574e-07 0.0000000000000000e+00  9.7088287974147801e-08 -1.5291663062399735e-09 0.0000000000000000e+00  -1.1013085527417834e-06 1.2670921000572008e-09 0.0000000000000000e+00  -4.0735543169308869e-07 -3.9232760007302613e-10 0.0000000000000000e+00  4.6336479845137585e-02 -1.6898885043533974e-02 0.0000000000000000e+00  1.4721954372546736e-01 7.3771161675658130e-04 0.0000000000000000e+00  1.4105654322335720e-01 4.7593402718610327e-03 0.0000000000000000e+00  1.5662109132622751e-01 4.7550578331901185e-05 0.0000000000000000e+00  3.0003698384263960e-01 8.1980014672864324e-02 0.0000000000000000e+00  3.3092298847074603e-01 5.8158004688594729e-02 0.0000000000000000e+00  3.1550535948617353e-01 2.6123346191036883e-02 0.0000000000000000e+00  1.6373753486629278e-01 9.3756947988202530e-06 0.0000000000000000e+00  2.0885477696287558e-01 1.6347353750598739e-04 0.0000000000000000e+00  2.0983190691113066e-01 -4.5327342617881551e-04 0.0000000000000000e+00  1.4283425964005014e-01 4.1622935585154398e-04 0.0000000000000000e+00  2.0882247246640712e-01 -3.3158397587545755e-07 0.0000000000000000e+00  2.0888544915086515e-01 1.8370094130813123e-06 0.0000000000000000e+00  2.0669996274191527e-01 5.4286946059252234e-06 0.0000000000000000e+00  2.0838659707333493e-01 1.4650266521436018e-05 0.0000000000000000e+00  1.4862286068506578e-01 4.9450950328536788e-06 0.0000000000000000e+00  1.5659146625290299e-01 1.1085118799445118e-05 0.0000000000000000e+00  2.1432490314119970e-01 2.1066707112361968e-01 0.0000000000000000e+00  2.9904715873031468e-02 7.3003006708625057e-02 0.0000000000000000e+00  1.4111507967243958e-01 1.2223061290438156e-03 0.0000000000000000e+00  2.1860750913407667e-01 -2.4001761311365135e-03 0.0000000000000000e+00  1.8749560437432208e-01 1.5226991696290439e-04 0.0000000000000000e+00  2.0830635805928854e-01 9.5253203779167156e-05 0.0000000000000000e+00  2.0917435213022523e-01 8.3921352237904248e-05 0.0000000000000000e+00  2.0592593406209422e-01 6.8592052052134951e-06 0.0000000000000000e+00  1.5795947455757134e-01 2.3417702952180811e-04 0.0000000000000000e+00  2.0807883293301840e-01 3.0069529940695818e-04 0.0000000000000000e+00  2.1619855115252032e-01 -3.1864475226574623e-03 0.0000000000000000e+00  1.5230560981795979e-01 1.3836887995046641e-05 0.0000000000000000e+00  2.0686569640651389e-01 4.5935922747357737e-05 0.0000000000000000e+00  1.4973101811295808e-01 5.7613403915050958e-06 0.0000000000000000e+00  1.4392459079908640e-01 8.0809356618778125e-02 0.0000000000000000e+00  2.4899432039151298e-01 1.3989890406587058e-01 0.0000000000000000e+00  2.0464109197456898e-01 3.2872580016881890e-02 0.0000000000000000e+00  1.3088858042368740e-01 2.6399908045697707e-03 0.0000000000000000e+00  2.4223463969498196e-01 -3.4442395562291332e-02 0.0000000000000000e+00  1.9941001738151376e-01 1.0886495273412424e-03 0.0000000000000000e+00  3.9288206722256341e-01 1.9002833442866497e-02 0.0000000000000000e+00  2.0753313272977811e-01 4.7180122753978778e-04 0.0000000000000000e+00  2.0237863923402064e-01 6.4097325744504161e-04 0.0000000000000000e+00  3.5126689884984613e-01 1.9458161214447367e-01 0.0000000000000000e+00  2.8571265508009847e-01 4.0318704980380871e-02 0.0000000000000000e+00  2.3201427548661485e-01 7.2860150788015332e-02 0.0000000000000000e+00  2.0888128093268904e-01 4.3296923165376663e-05 0.0000000000000000e+00  2.0015254050849210e-01 -1.1790539508113371e-05 0.0000000000000000e+00  2.0716679024535517e-01 -3.6702660748085220e-06 0.0000000000000000e+00  3.6968214062960891e-01 -1.0505115888012721e-01 0.0000000000000000e+00  1.2260817714513292e-01 2.4835796998919243e-02 0.0000000000000000e+00  1.4027472134430874e-01 1.2464038923002931e-04 0.0000000000000000e+00  2.1292248327246921e-01 2.2119090417814621e-02 0.0000000000000000e+00  1.5206987662723853e-01 5.6385645738092731e-02 0.0000000000000000e+00  2.0590806096590980e-01 3.9588493440854137e-04 0.0000000000000000e+00  1.5023300607642370e-01 2.2423939047563394e-04 0.0000000000000000e+00  1.7439224650572435e-01 -2.7012994817814853e-03 0.0000000000000000e+00  4.6883801382470958e-01 4.0792322662983806e-02 0.0000000000000000e+00  1.9272390123171712e-01 -1.9588578475177181e-02 0.0000000000000000e+00  2.3588197366077338e-01 -3.7689068454340988e-02 0.0000000000000000e+00  2.0228952259824134e-01 9.7155717412330548e-06 0.0000000000000000e+00  1.5333230969567202e-01 -1.8543027892073197e-02 0.0000000000000000e+00  2.0211309107275258e-01 1.8551193547332103e-04 0.0000000000000000e+00  2.0782185353783933e-01 3.2561899719147697e-04 0.0000000000000000e+00  2.0076264328766202e-01 -1.1587612350691654e-04 0.0000000000000000e+00  5.7391983185056082e-02 -1.5388683359251058e-02 0.0000000000000000e+00  1.2098123875917496e-01 1.8331191112088744e-05 0.0000000000000000e+00  1.2277277288676311e-01 1.3173589369594982e-05 0.0000000000000000e+00  1.3063072100151393e-01 -8.6942278179628601e-02 0.0000000000000000e+00  6.1769059757996354e-02 1.6425325849867865e-02 0.0000000000000000e+00  1.9971335356366093e-01 1.1671862126646254e-05 0.0000000000000000e+00  1.2909177866195162e-01 5.0425876528261988e-06 0.0000000000000000e+00  4.1441313161262006e-01 -5.3352263635220915e-02 0.0000000000000000e+00  2.0709459525368543e-01 6.0353197445140773e-05 0.0000000000000000e+00  2.0301740925784362e-01 9.2887289834922112e-06 0.0000000000000000e+00  3.5785376129394031e-02 -1.7651794984931346e-08 0.0000000000000000e+00  1.5226000188805830e-01 -5.8284273354440919e-02 0.0000000000000000e+00  1.5901256343388837e-01 4.1437135856545029e-02 0.0000000000000000e+00  2.0801875536324990e-01 2.0529088830010421e-05 0.0000000000000000e+00  2.0165136773052703e-01 1.0411663776316563e-04 0.0000000000000000e+00  9.3867863383359687e-02 2.1140959379044567e-03 0.0000000000000000e+00  1.9647839326005778e-01 5.4400317039093600e-04 0.0000000000000000e+00  3.8110201100956675e-01 3.5597591960727114e-02 0.0000000000000000e+00  1.3860717525320637e-01 1.1624332712823762e-04 0.0000000000000000e+00  1.1947020876175085e-01 2.0837578088057364e-05 0.0000000000000000e+00  1.3201803591716124e-01 -1.1904269223889634e-06 0.0000000000000000e+00  -2.9053485212535970e-03 4.7599069805658117e-02 0.0000000000000000e+00  3.3356381704750387e-01 1.0526429107308106e-07 0.0000000000000000e+00  1.2673367211649036e-01 2.2978059590602631e-04 0.0000000000000000e+00  4.0934435613828785e-01 1.2035449327599547e-03 0.0000000000000000e+00  1.3626494105081022e-01 1.4441466366033664e-06 0.0000000000000000e+00  2.0237430097201764e-01 2.5762867634859005e-03 0.0000000000000000e+00  1.1852652657761245e-01 5.6737869162877252e-08 0.0000000000000000e+00  2.0717080701148563e-01 5.6050772027074580e-06 0.0000000000000000e+00  1.3204617125676882e-01 1.1482572910912802e-05 0.0000000000000000e+00  2.1733313363488491e-01 1.3512282259160318e-07 0.0000000000000000e+00  1.3205420018450112e-01 3.5634957092936920e-06 0.0000000000000000e+00  2.0078543383148359e-01 3.8393799815817422e-04 0.0000000000000000e+00  2.0830918737983820e-01 3.0206652586684048e-06 0.0000000000000000e+00  1.2950412360102825e-01 2.9809376575595336e-04 0.0000000000000000e+00  1.0380215261015047e-01 2.1389419174318048e-04 0.0000000000000000e+00  1.9624560237281360e-01 4.9051619924142878e-04 0.0000000000000000e+00  9.6212059797770588e-02 -3.6694095013632376e-03 0.0000000000000000e+00  3.1257463609036301e-01 -2.2885645893310862e-02 0.0000000000000000e+00  2.6132986059583446e-01 -2.6004982136509085e-02 0.0000000000000000e+00  4.2837259621606560e-01 -7.4683065239027693e-02 0.0000000000000000e+00  1.2103972887246964e-01 5.3689969220379038e-05 0.0000000000000000e+00  3.4749231505712458e-01 -1.1883782970674503e-01 0.0000000000000000e+00  2.1631167386860306e-01 -2.8545259080735286e-02 0.0000000000000000e+00  1.9664520723137463e-01 1.3266771584151970e-05 0.0000000000000000e+00  2.0651558270632833e-01 -3.7646740086208041e-03 0.0000000000000000e+00  1.0250293783562227e-01 9.2338179872535455e-06 0.0000000000000000e+00  9.9316276057387867e-02 -4.8195242026242173e-03 0.0000000000000000e+00  2.1070082360644343e-01 -6.9148784280631190e-0