<?xml version="1.0"?>
<VTKFile type="UnstructuredGrid"  version="0.1"  >
<UnstructuredGrid>
<Piece  NumberOfPoints="1404" NumberOfCells="2604">
<Points>
<DataArray  type="Float64"  NumberOfComponents="3"  format="ascii">0 0.41 0  0 0 0  2.2 0 0  2.2 0.41 0  0.2353553390593274 0.2353553390593274 0  0.25 0.2 0  0.2353553390593274 0.1646446609406726 0  0.2 0.15 0  0.1646446609406726 0.1646446609406726 0  0.15 0.2 0  0.1646446609406726 0.2353553390593274 0  0.2 0.25 0  0.6923879532511287 0.188268343236509 0  0.7 0.15 0  0.6923879532511287 0.1117316567634909 0  0.6707106781186547 0.07928932188134523 0  0.6382683432365089 0.05761204674887133 0  0.6 0.04999999999999999 0  0.5617316567634909 0.05761204674887134 0  0.5292893218813453 0.07928932188134524 0  0.5076120467488713 0.111731656763491 0  0.5 0.15 0  0.5076120467488713 0.188268343236509 0  0.5292893218813453 0.2207106781186547 0  0.561731656763491 0.2423879532511287 0  0.6 0.25 0  0.6382683432365089 0.2423879532511287 0  0.6707106781186547 0.2207106781186547 0  1.1 0 0  0 0.205 0  1.1 0.41 0  0.55 0 0  0.55 0.41 0  0.275 0 0  0.8250000000000001 0 0  0.275 0.41 0  0.8250000000000001 0.41 0  0.6875 0 0  0.61875 0 0  1.65 0.41 0  1.65 0 0  1.375 0 0  1.375 0.41 0  1.925 0 0  1.925 0.41 0  1.5125 0.205 0  1.7875 0.205 0  0.9625000000000001 0.205 0  1.2375 0.205 0  2.2 0.205 0  1.99375 0.2152743902439024 0  0.4125 0.41 0  2.0625 0 0  2.0625 0.41 0  2.2 0.3075 0  1.7875 0.41 0  1.375 0.1486128048780488 0  1.5125 0 0  1.7875 0 0  1.5125 0.41 0  0.9625000000000001 0.41 0  0.4125 0 0  0.1375 0 0  0.1375 0.41 0  0.6875 0.41 0  0.9625000000000001 0 0  1.2375 0 0  1.1 0.1486128048780488 0  1.2375 0.41 0  1.65 0.1486128048780487 0  0.823495464168302 0.2603780552348366 0  0.3738707794507017 0.2720196349488618 0  0.3662291281331582 0.1311456406657909 0  1.676715909090909 0.2793064024390244 0  1.126715909090909 0.2793064024390244 0  1.348284090909091 0.2793064024390244 0  0.8287581077665108 0.1302150898054257 0  1.894702181800738 0.1282910975492754 0  2.092797818199262 0.1282910975492754 0  1.85625 0.3075 0  0 0.3075 0  0 0.1025 0  2.099172119769978 0.25625 0  0.4752414543992246 0.3180372603390748 0  1.99375 0.08395950269330846 0  1.459960956013612 0.3075 0  1.569025960719943 0.2986889805672169 0  1.03125 0.3278689922742084 0  1.959375 0.3126371951219512 0  1.749222215368287 0.1025 0  1.275777784631713 0.1025 0  0.9228016959331474 0.3075 0  1.000777784631713 0.1025 0  2.2 0.1025 0  1.225938124459196 0.3075 0  1.550777784631713 0.1025 0  1.44375 0.07430640243902442 0  1.16875 0.07430640243902439 0  0.7562500000000001 0.3358727844323386 0  0.89375 0 0  1.899250267340833 0.2229966846119207 0  0.61875 0.41 0  1.766482954545455 0.2934032012195123 0  1.046078563095834 0.2389031808701145 0  1.421109702350723 0.2261157654379721 0  0.07567171807980319 0.25625 0  0.2511897295290552 0.3235829392832554 0  0.07655002503762308 0.1488653460959645 0  0.1377245246847496 0.3206030474919778 0  0.6694099692696568 0.3242771941727899 0  0.9168971191497528 0.1295727156104653 0  0.7562500000000001 0 0  2.118919042110979 0.3422084711244843 0  2.13125 0 0  0.06875000000000001 0 0  1.30625 0.41 0  1.597888256393107 0.2173787389261347 0  0.34375 0.41 0  0.2493272016354703 0.08091360081773515 0  0.5588896233436766 0.3264056208677571 0  1.829299675393195 0.07400700849299596 0  0.1334079128307869 0.08523463035786674 0  1.71875 0.41 0  0.06875000000000001 0.41 0  1.16875 0.41 0  2.038220665644273 0.332420740103091 0  0.8810647413215221 0.2027360103977071 0  0.34375 0 0  0.7453891198966415 0.2471459041008237 0  0.42112093004955 0.1988123139090554 0  0.8314023090855964 0.3351170841770613 0  0.89375 0.41 0  0.7906250000000001 0.06615386481594063 0  1.452769549894695 0.1548122580621249 0  1.369219062229598 0.07430640243902442 0  1.30625 0 0  1.07420695807087 0.07430640243902439 0  1.720943423819132 0.1714577452753128 0  1.157188124459196 0.205 0  1.304056576180868 0.1714577452753128 0  1.67579304192913 0.07430640243902437 0  1.209670467133757 0.136210026696477 0  0.4312800784902823 0.08036147352247747 0  0.8723959680194693 0.07066860609690805 0  1.025335513626278 0.1700681449722324 0  0.7945632284247136 0.1940204203251442 0  0.378125 0.3452261501101892 0  0.3307109909790086 0.2037165635083759 0  0.3009701032039409 0.2702970083403109 0  0.20625 0.41 0  1.58125 0 0  0.4812500000000001 0 0  0.9838963872396855 0.2722244191167347 0  0.06772484939107212 0.3260067317374387 0  0.20625 0 0  1.58125 0.41 0  1.631724228912893 0.3381867502687533 0  1.825608881788174 0.14499488549201 0  1.85625 0 0  1.44375 0 0  1.44375 0.41 0  1.85625 0.41 0  2.13125 0.41 0  0.7562500000000001 0.41 0  0.4812500000000001 0.41 0  1.16875 0 0  1.03125 0.41 0  1.03125 0 0  1.71875 0 0  1.99375 0 0  1.99375 0.41 0  0.9408708167433545 0.0651989315768642 0  1.340625 0.3489494290853124 0  1.134375 0.3489494290853123 0  1.700180620188976 0.3438659752031281 0  0.29668452290037 0.1318471691375986 0  0.3175441051360096 0.06496934809856265 0  0.06509151636162461 0.08140814015999148 0  2.135782184673599 0.07126652247502523 0  1.668441847249787 0.2129203728327609 0  1.295782514339747 0.2378437748815763 0  1.409375 0.3520314716057996 0  2.129248544730567 0.1906135162504124 0  2.060771381434487 0.1989445750470348 0  2.013252586573865 0.1496169464686054 0  1.942766402200229 0.1734448904596831 0  1.895522487186454 0.06076163953489683 0  2.069553871656643 0.06605731020975725 0  0.4670911801404742 0.2498408582391372 0  0.7622743084658112 0.1264100838268133 0  1.274680914880868 0.3520219391081363 0  0.3148669572599245 0.3331753056385887 0  1.614713220494657 0.09473434380863296 0  1.72990325744076 0.2380068107952482 0  1.356580098625191 0.2120393231351682 0  2.034370752044885 0.2668681600792073 0  1.51768709249349 0.3426260931494756 0  1.561883724969884 0.1650446847858835 0  1.197344062229598 0.2523725417393646 0  1.804085235518364 0.3468178408964637 0  1.817887819205233 0.2589243285818559 0  1.905897727272727 0.3485060975609756 0  0.7296439733931823 0.06337466644369745 0  0.4250935971865949 0.1394919578475796 0  0.3773030136511669 0.05130372097998036 0  1.192836486056382 0.3562350748565544 0  1.1029124365364 0.226143510831178 0  1.28257088594801 0.2944411014911587 0  0.1905185804731426 0.06029880676029167 0  1.474860187679412 0.2504218616229368 0  1.406767003493824 0.2829282258560709 0  0.5209826960981064 0.2830664557824064 0  0.5131119502780163 0.3617405848213254 0  0.1948220106098172 0.3081993407644811 0  1.845656689180403 0.1998310418452388 0  2.144958525570388 0.2909790873294231 0  2.2 0.15375 0  0.8833025251326762 0.2625402923007629 0  0.171875 0.3653875762360952 0  1.57794966442982 0.3540357145964566 0  0.446875 0.366068291212731 0  0.4272051715206439 0.2891929346190664 0  1.508991196088596 0.1421783375065625 0  1.50436820029908 0.06143401634903343 0  1.223857000523521 0.08235548624535324 0  0.6137904613287555 0.3066826366281556 0  1.153316824384777 0.1289850171317838 0  0.9751573703656133 0.327632618473408 0  2.148922302309752 0.1258841779285271 0  0.9281250000000001 0.3643758685795699 0  1.621993280276081 0.2841214267927899 0  1.550118654119087 0.2461998729100966 0  1.327182649291491 0.1216967252533594 0  0.9939955742738924 0.04663549843168518 0  1.753125 0.04556020050186112 0  1.271875 0.04556020050186116 0  0.9734326767716519 0.1506854560854393 0  0.103125 0.3675775577080512 0  1.94956388244759 0.1180512551534177 0  1.949997712993411 0.04965831614304109 0  0.717433898748555 0.295596016333797 0  1.771961817615021 0.1530278789497521 0  1.909246823951428 0.2812757146784527 0  0 0.35875 0  1.050632804931928 0.1226269704412814 0  0.05695108326502596 0.2024009637347154 0  1.948575539857022 0.2445328248721197 0  1.697271520964565 0.1233917627620729 0  1.065625 0.3689344961371042 0  1.085849084308977 0.3170853572226867 0  0.1015495998772944 0.04226029099983852 0  1.577403511714593 0.05463601888079143 0  1.751571320346033 0.3651102912045228 0  2.2 0.35875 0  0.7441773632462837 0.1786786606458751 0  0 0.05125 0  1.466879772203159 0.3611261772912453 0  0.6282230348858767 0.3577675483994025 0  1.990280163552011 0.3564754268533217 0  1.17471064520912 0.2990917256188288 0  0 0.25625 0  2.2 0.25625 0  2.2 0.05125 0  0 0.15375 0  1.853978576207987 0.35875 0  1.515638456102889 0.2882700110184686 0  2.150453692751374 0.2387066338105111 0  1.323782677156475 0.04897634338873398 0  1.409375 0.03715320121951221 0  1.406484531114799 0.1087852750766809 0  1.134375 0.03715320121951219 0  0.721875 0.3729363922161693 0  0.7941695928236929 0.3696489254637395 0  0.7934827162619036 0.3013409431456604 0  1.627401732573545 0.04552157221025036 0  0.9352049974617431 0.2507047965699472 0  0.8763260682738339 0.3611103317460093 0  2.045405893604797 0.1105340662939892 0  1.255408269734577 0.1577307500159216 0  2.028125 0.03707597992059326 0  1.003030137506755 0.3689344961371042 0  1.248258025468107 0.2565907092181813 0  1.203125 0.03661323374043041 0  0.4800125512335631 0.0549472816999725 0  2.072662025974815 0.2975086504196739 0  0.240625 0.3729825336867542 0  1.113252391110535 0.10238286244357 0  1.071052763974265 0.1885202618768825 0  0.8738809401657862 0.3106483608284829 0  0.6786819423003397 0.2677558482644021 0  1.887722846421017 0.1760882698830035 0  1.472640588990488 0.1118278026240017 0  0.5843750000000001 0.41 0  1.865937103925594 0.2604137786483804 0  1.463913572748262 0.2030442564990043 0  1.376426316059077 0.3186741374914345 0  0.1038643885363755 0.2162701735320032 0  0.1769473813227781 0.1070849728467114 0  0.458787839809176 0.171541653775316 0  0.240625 0 0  0.04179569703428024 0.2877217852556549 0  0.1258346557601885 0.2699740073054968 0  1.722140693354707 0.282908100935778 0  0.41206179117512 0.2448172567039922 0  0.3702471778075604 0.2265217604228704 0  0.3714881805374215 0.1786967818665642 0  1.77397096061971 0.2481483237422926 0  2.105123889160691 0.03743885948498647 0  1.001138337938679 0.229719337663998 0  1.051242910646791 0.2854826559431138 0  1.395420985247586 0.18
[...]
<PointData  Vectors="f_37"> 
<DataArray  type="Float64"  Name="f_37"  NumberOfComponents="3" format="ascii">2.5413800489731699e-07 5.2155622334770151e-08 0.0000000000000000e+00  -4.4464073147692486e-06 -3.6069165996723943e-07 0.0000000000000000e+00  -6.6890105921755193e-07 4.1417491531611612e-10 0.0000000000000000e+00  -8.9224107767428846e-07 2.4243947451595787e-11 0.0000000000000000e+00  -6.8392551528148794e-08 2.0856571634908617e-07 0.0000000000000000e+00  2.0692222695453107e-07 -3.1077064894442722e-07 0.0000000000000000e+00  2.2407522239430301e-07 6.2438549171124186e-08 0.0000000000000000e+00  -8.5245526570440343e-07 -1.9385296599053149e-07 0.0000000000000000e+00  -9.1034743245639289e-07 -1.9176044930943316e-07 0.0000000000000000e+00  1.4743821531772776e-07 -4.9433773153119145e-07 0.0000000000000000e+00  -1.0151256272397554e-06 -5.9064885891974903e-07 0.0000000000000000e+00  -1.2267406761316980e-06 -2.5323615620227569e-07 0.0000000000000000e+00  5.1679606727998737e-07 4.3715641033273697e-07 0.0000000000000000e+00  -5.0306112292103197e-07 -6.2443168709945625e-07 0.0000000000000000e+00  -5.0168475901088107e-07 -3.4433547453104616e-07 0.0000000000000000e+00  -2.0970662460817768e-06 -5.1722422324844312e-07 0.0000000000000000e+00  1.3865611147904045e-06 7.1588388191037775e-07 0.0000000000000000e+00  3.4224954874696423e-01 9.5571647702797843e-02 0.0000000000000000e+00  3.1714554292767964e-06 1.5108907942028467e-06 0.0000000000000000e+00  1.6559451437050506e-06 1.2867790427203763e-07 0.0000000000000000e+00  -1.5555063589539822e-06 9.4619947183822815e-08 0.0000000000000000e+00  -3.4859558820444625e-07 -4.9860496989809506e-07 0.0000000000000000e+00  -3.8910412760793482e-07 -9.1700716625863941e-07 0.0000000000000000e+00  -1.3586346024884860e-06 -1.8454574371707231e-06 0.0000000000000000e+00  -3.1098200765206659e-06 -9.0055893258233155e-07 0.0000000000000000e+00  -3.9185581748410124e-06 -1.8764220249017108e-07 0.0000000000000000e+00  -4.0919542674727623e-06 -3.5199055812456554e-07 0.0000000000000000e+00  -1.4093343756823185e-07 1.3770610402228730e-07 0.0000000000000000e+00  -2.1342529631972454e-06 3.6129275442305491e-07 0.0000000000000000e+00  1.6583343776547679e-01 -4.7362872726290222e-07 0.0000000000000000e+00  1.4096026296850505e-06 5.4700933593883183e-07 0.0000000000000000e+00  3.5987163742439686e-06 1.5742259423033813e-06 0.0000000000000000e+00  -3.5081304262284839e-07 3.2351027808371255e-09 0.0000000000000000e+00  5.0192169242082188e-07 6.4641563022751458e-08 0.0000000000000000e+00  1.6870208283636375e-07 -1.0398093361225269e-07 0.0000000000000000e+00  -8.8543547600060994e-07 2.7843049662937743e-08 0.0000000000000000e+00  -1.6107214231094123e-06 -1.1955510056258081e-07 0.0000000000000000e+00  -2.7517415570741049e-06 -5.3167983540883680e-07 0.0000000000000000e+00  -9.6076715523137644e-06 -7.3714048774880096e-07 0.0000000000000000e+00  -1.0018839508838659e-06 -6.0105901852918636e-09 0.0000000000000000e+00  -1.2547099706207153e-06 -8.4433402230982171e-09 0.0000000000000000e+00  -4.5836758100224226e-07 -2.9163094859990393e-09 0.0000000000000000e+00  -1.0403256303091859e-06 -7.5041574471623281e-08 0.0000000000000000e+00  -5.0569009007626963e-07 -3.7825822680685802e-10 0.0000000000000000e+00  -6.6440264463358041e-08 -2.0713059621431187e-10 0.0000000000000000e+00  2.1753840584927894e-01 2.8880054264181941e-03 0.0000000000000000e+00  2.1753716169335341e-01 2.4787989741141016e-04 0.0000000000000000e+00  2.2250947614645070e-01 -4.2620986423196824e-02 0.0000000000000000e+00  2.4940068714478447e-01 -2.3805034609246999e-02 0.0000000000000000e+00  2.1755972068076057e-01 -2.7310627524664034e-06 0.0000000000000000e+00  2.1739188222383582e-01 2.0207508438622311e-05 0.0000000000000000e+00  3.4200024275980438e-07 -5.6166544667619207e-09 0.0000000000000000e+00  1.7396111792133421e-07 4.5573913636820625e-10 0.0000000000000000e+00  -5.7496353255279113e-07 6.8697322583081943e-10 0.0000000000000000e+00  1.8943384645841546e-01 -7.1781049785089982e-06 0.0000000000000000e+00  -8.4016590476618641e-07 -1.9029362325414198e-09 0.0000000000000000e+00  2.1503561419471620e-01 2.3353497643408597e-03 0.0000000000000000e+00  -1.1785700482529507e-06 -2.1135447960305019e-08 0.0000000000000000e+00  -1.0362341906994081e-06 -1.8199306051971201e-09 0.0000000000000000e+00  -7.4357408238369308e-07 -2.1591941655426872e-08 0.0000000000000000e+00  -3.4774692704688221e-07 -5.5346840682348276e-08 0.0000000000000000e+00  -4.7634689664293667e-07 -8.4376234307999539e-08 0.0000000000000000e+00  -7.8821934234198362e-07 -7.4589897751425286e-08 0.0000000000000000e+00  -4.6252878194285850e-07 -9.4902547477356625e-08 0.0000000000000000e+00  -2.3057301119850505e-06 6.8905202634860232e-08 0.0000000000000000e+00  3.0192755172569628e-06 -6.9164331183963757e-07 0.0000000000000000e+00  -1.1955389848575537e-06 3.5482708729220088e-07 0.0000000000000000e+00  1.7793606511311527e-01 -9.4864998680693688e-02 0.0000000000000000e+00  -3.3213301975246213e-07 -1.2982497209664264e-07 0.0000000000000000e+00  2.1229281288424010e-01 8.3814490144635320e-04 0.0000000000000000e+00  2.7493507932006717e-01 -3.7006440575045763e-02 0.0000000000000000e+00  1.0645151431737200e-01 2.2065275366121707e-03 0.0000000000000000e+00  3.0653100004889849e-01 1.0837543856695196e-01 0.0000000000000000e+00  2.0562003722953573e-01 5.7248916541425264e-04 0.0000000000000000e+00  2.7315542170048740e-01 -5.5156464186938640e-02 0.0000000000000000e+00  2.0205161064517085e-01 9.2910584028598735e-03 0.0000000000000000e+00  6.3279726421391916e-02 6.4455231462838422e-02 0.0000000000000000e+00  2.0505269251880534e-01 5.4569947680178071e-05 0.0000000000000000e+00  2.0499251390800560e-01 9.5163013084377000e-06 0.0000000000000000e+00  1.8936466250632306e-01 5.3362927400481410e-05 0.0000000000000000e+00  7.5234909216030085e-02 1.9978072570505263e-08 0.0000000000000000e+00  2.7319256199178532e-01 -5.3358586436129838e-09 0.0000000000000000e+00  2.1303034783490660e-01 1.7806548689883281e-06 0.0000000000000000e+00  2.3623160757524500e-01 7.1432577509818823e-02 0.0000000000000000e+00  1.7148658984903706e-01 7.5435969980555937e-06 0.0000000000000000e+00  1.8578705370901846e-01 3.1743762598086945e-03 0.0000000000000000e+00  1.9445490505729807e-01 1.3301270154764495e-03 0.0000000000000000e+00  2.4789845942087482e-01 -4.7410111040600098e-02 0.0000000000000000e+00  1.8509682570007582e-01 7.2276311371641158e-06 0.0000000000000000e+00  1.8964450078448772e-01 2.0485163023443144e-04 0.0000000000000000e+00  1.8816609668005496e-01 -1.2642559862040541e-02 0.0000000000000000e+00  3.9699736062942537e-01 -6.7555764822749650e-02 0.0000000000000000e+00  3.4535623289294506e-02 -1.3902475289730418e-02 0.0000000000000000e+00  1.8938868022122726e-01 2.7993959997512804e-06 0.0000000000000000e+00  1.7763378240020533e-01 7.8474766420054669e-03 0.0000000000000000e+00  1.9106636543780461e-01 1.4567084057804469e-03 0.0000000000000000e+00  1.6396475477209174e-01 2.0066759026606011e-03 0.0000000000000000e+00  1.1477259521636254e-01 -3.4622079164765368e-02 0.0000000000000000e+00  4.3303079524742855e-01 -3.7029228155347725e-02 0.0000000000000000e+00  1.6955568116708404e-06 -4.4553183348718272e-07 0.0000000000000000e+00  2.1707608692749403e-01 6.6701840131939857e-05 0.0000000000000000e+00  -8.8608625166050620e-07 2.0343560299463573e-07 0.0000000000000000e+00  1.9888847278861374e-01 2.0772266243781714e-04 0.0000000000000000e+00  3.4647910655943792e-01 -1.1315354068143310e-01 0.0000000000000000e+00  2.1678116091556010e-01 5.0849824134133791e-03 0.0000000000000000e+00  1.2574060904611320e-01 7.1617098833075071e-02 0.0000000000000000e+00  2.3148378507853465e-01 1.3775002172559161e-02 0.0000000000000000e+00  2.0869678176740983e-01 2.4769873511611917e-02 0.0000000000000000e+00  1.4777671683924443e-01 7.3994168726052453e-02 0.0000000000000000e+00  4.6236501216090281e-01 -1.0414590967097657e-02 0.0000000000000000e+00  5.6816397713331364e-02 3.2900601235497630e-02 0.0000000000000000e+00  -2.1696738031256634e-07 -1.4667987918839455e-07 0.0000000000000000e+00  1.5022999946413360e-01 -2.6260171861678051e-06 0.0000000000000000e+00  -1.6873051039343715e-06 -1.9969101174265150e-09 0.0000000000000000e+00  -1.2616252985926465e-06 5.0478448510124808e-09 0.0000000000000000e+00  -1.2702829995781768e-06 -1.6507778257186545e-07 0.0000000000000000e+00  2.1712784175947222e-01 1.4966743004771726e-03 0.0000000000000000e+00  -1.6883818735624079e-06 3.9647927833108624e-08 0.0000000000000000e+00  4.0324060707307013e-01 4.3079781411285933e-02 0.0000000000000000e+00  3.7480776483360390e-01 8.0122312633326864e-02 0.0000000000000000e+00  1.5915779733827143e-01 4.2515417632584726e-05 0.0000000000000000e+00  3.4338558330419972e-01 1.3498011060919810e-02 0.0000000000000000e+00  -1.0500616325488808e-06 -4.1448125040434340e-09 0.0000000000000000e+00  -1.2804757672727149e-07 -1.4619427345762256e-08 0.0000000000000000e+00  1.5300892992921423e-06 2.0099045586397272e-07 0.0000000000000000e+00  1.6377187457935169e-01 -3.0693184742134687e-06 0.0000000000000000e+00  1.3365505348953705e-01 1.1813614023948871e-02 0.0000000000000000e+00  -2.9726279018138111e-07 -6.2141969561285755e-08 0.0000000000000000e+00  1.4143325786088712e-01 -2.2080133284108263e-02 0.0000000000000000e+00  1.6186973720654024e-01 1.5154200211249838e-01 0.0000000000000000e+00  4.0055911276513667e-01 -4.3277895842712383e-02 0.0000000000000000e+00  1.5893008094408438e-06 -2.2568637386647770e-07 0.0000000000000000e+00  9.6674619986446483e-02 5.1731866296252427e-02 0.0000000000000000e+00  2.1504791734648987e-01 3.5487271388022386e-03 0.0000000000000000e+00  1.6598357485972948e-01 1.5175054132122261e-03 0.0000000000000000e+00  -1.7062267805389229e-07 9.7324523322273825e-08 0.0000000000000000e+00  4.2623930217644511e-02 -3.4945381896297770e-02 0.0000000000000000e+00  2.1592977642913178e-01 4.6010385967029844e-04 0.0000000000000000e+00  2.8300440054693593e-01 -8.1430978976898091e-02 0.0000000000000000e+00  2.2389077943026933e-01 -6.5951468697182901e-03 0.0000000000000000e+00  1.5996043059349535e-01 2.9964823628769618e-04 0.0000000000000000e+00  2.0162542386247900e-01 -4.9902653772956045e-02 0.0000000000000000e+00  2.3461993523792155e-01 2.5783284816027138e-02 0.0000000000000000e+00  3.4056416032997312e-02 2.5959984906096283e-02 0.0000000000000000e+00  1.8171514576861839e-01 -7.0621448190015881e-02 0.0000000000000000e+00  3.5420009651766858e-02 2.8609694168473393e-02 0.0000000000000000e+00  2.0957554771788117e-01 7.7088085424103095e-03 0.0000000000000000e+00  3.7320963759081650e-02 1.4172273139622823e-02 0.0000000000000000e+00  1.0358027441521547e-01 -2.1647458437149391e-02 0.0000000000000000e+00  -9.3366570992790243e-07 -1.4516196791641900e-07 0.0000000000000000e+00  -4.9625315478537363e-07 -1.1909756612097654e-08 0.0000000000000000e+00  -3.5165799821274715e-07 3.3217586771625280e-07 0.0000000000000000e+00  3.8286242712593876e-01 -9.4072279921457197e-02 0.0000000000000000e+00  7.8099801971098157e-02 3.1550110578286973e-02 0.0000000000000000e+00  -2.1456277594734447e-06 -1.0676287215279118e-07 0.0000000000000000e+00  -7.6899327959888781e-07 -1.0282223797620048e-08 0.0000000000000000e+00  1.5526046796842208e-01 4.2935966387962031e-04 0.0000000000000000e+00  2.1093717855547994e-01 1.3283462129000119e-04 0.0000000000000000e+00  -7.2153353573355138e-07 -5.9981742572279549e-10 0.0000000000000000e+00  -6.2412474691287204e-07 -3.6859250472364718e-08 0.0000000000000000e+00  -1.2304209028841297e-06 -4.8462677966051732e-08 0.0000000000000000e+00  -1.5293649899596500e-07 -2.3169186104039688e-10 0.0000000000000000e+00  -1.0089191985789227e-07 -1.5362656546827854e-10 0.0000000000000000e+00  3.6615672508253618e-07 -2.1065793125453609e-07 0.0000000000000000e+00  -2.0846054288252525e-06 -2.7646450543259350e-07 0.0000000000000000e+00  -3.5534945752059199e-06 6.7813651329916178e-07 0.0000000000000000e+00  2.7903321385860129e-07 2.0920638804304307e-07 0.0000000000000000e+00  1.8459022315074891e-06 -4.5284583363805309e-07 0.0000000000000000e+00  1.5121937996483583e-07 -2.6477976713844824e-09 0.0000000000000000e+00  -9.3309451263530129e-07 6.3636922239437498e-10 0.0000000000000000e+00  -3.1988024297931335e-07 -2.6450822098380729e-10 0.0000000000000000e+00  3.4053760288492376e-03 1.2449217983216044e-02 0.0000000000000000e+00  1.2725699857906056e-01 5.1581474868301032e-03 0.0000000000000000e+00  1.1598359190805722e-01 -8.3699801266877236e-03 0.0000000000000000e+00  1.4737211481190507e-01 1.8738951607138313e-04 0.0000000000000000e+00  2.9243665119474055e-01 7.6887542224402680e-02 0.0000000000000000e+00  3.3538308720726578e-01 5.4328156197343040e-02 0.0000000000000000e+00  3.1535628894871248e-01 2.6463674994860392e-02 0.0000000000000000e+00  1.5524985691481996e-01 1.0664422505660407e-05 0.0000000000000000e+00  2.1737961926411140e-01 8.0556061208693613e-04 0.0000000000000000e+00  2.2627878815880526e-01 5.3972681731283547e-03 0.0000000000000000e+00  1.2791653565683489e-01 2.5542642065505333e-03 0.0000000000000000e+00  2.1725976074297723e-01 1.4363062971733535e-06 0.0000000000000000e+00  2.1749164912471788e-01 4.8074954643576611e-06 0.0000000000000000e+00  2.1206255043501043e-01 6.9558591991897511e-06 0.0000000000000000e+00  2.1603220270153572e-01 3.1675800323068977e-05 0.0000000000000000e+00  1.3922459445310281e-01 9.7193672509777649e-06 0.0000000000000000e+00  1.4758446509618542e-01 1.1618096175102283e-05 0.0000000000000000e+00  2.0538608704740810e-01 1.9399416938055844e-01 0.0000000000000000e+00  4.5189289985070415e-02 6.4037795696401736e-02 0.0000000000000000e+00  1.1266229456202727e-01 7.1698360405589015e-03 0.0000000000000000e+00  2.1906066700124646e-01 -5.5297085019559589e-03 0.0000000000000000e+00  1.8366203797637390e-01 7.5488933448463618e-04 0.0000000000000000e+00  2.1573479121887176e-01 4.2138473493252089e-04 0.0000000000000000e+00  2.2113499065937711e-01 4.8542537779490110e-03 0.0000000000000000e+00  2.1041193266114300e-01 1.0505220314435951e-05 0.0000000000000000e+00  1.4715990396284279e-01 1.1536234928192514e-03 0.0000000000000000e+00  2.1565246541832137e-01 1.9088353798059872e-03 0.0000000000000000e+00  2.5673214975844105e-01 -2.4538094181321815e-02 0.0000000000000000e+00  1.4302950035489878e-01 4.6493373174577513e-05 0.0000000000000000e+00  2.1234895051691513e-01 1.5158243801555589e-04 0.0000000000000000e+00  1.4038175546315523e-01 1.0177093933749799e-05 0.0000000000000000e+00  1.5683326268615114e-01 8.2776806304665204e-02 0.0000000000000000e+00  2.4870872473448832e-01 1.3235205073155651e-01 0.0000000000000000e+00  2.1617391636944136e-01 3.1487168751850911e-02 0.0000000000000000e+00  9.4248376188666522e-02 2.8207797157647186e-03 0.0000000000000000e+00  3.2023176201394099e-01 -1.0749221287181154e-01 0.0000000000000000e+00  1.9090271061780573e-01 1.2551069751360673e-02 0.0000000000000000e+00  3.9194221160644344e-01 1.8331670263593797e-02 0.0000000000000000e+00  2.1273527638892634e-01 3.6989043511364106e-03 0.0000000000000000e+00  2.0067463112655540e-01 5.8192670580986330e-03 0.0000000000000000e+00  3.4694799926899128e-01 1.8847999926251885e-01 0.0000000000000000e+00  2.7357344164758945e-01 3.5886012336277855e-02 0.0000000000000000e+00  2.3206449582208744e-01 7.1730502953437997e-02 0.0000000000000000e+00  2.1750457818948440e-01 1.3327269103124748e-04 0.0000000000000000e+00  2.0050373579726816e-01 -1.2671971372070483e-05 0.0000000000000000e+00  2.1301678606237442e-01 2.2742203219186048e-06 0.0000000000000000e+00  3.2915653537599493e-01 -5.0776363383849096e-02 0.0000000000000000e+00  1.2590624662444275e-01 2.5230478102394586e-02 0.0000000000000000e+00  1.2973503451163251e-01 5.1058080267996661e-04 0.0000000000000000e+00  2.0748096036181890e-01 2.1201828760228192e-02 0.0000000000000000e+00  1.5626466437089492e-01 4.7246600707141019e-02 0.0000000000000000e+00  2.1161692243896532e-01 2.5832263622605897e-03 0.0000000000000000e+00  1.4309927006838491e-01 1.1157105853045659e-03 0.0000000000000000e+00  1.5436193311442545e-01 -2.3164191031754974e-02 0.0000000000000000e+00  4.6967490629140762e-01 4.7102751130538752e-02 0.0000000000000000e+00  1.7061948643012614e-01 -7.5594243885324930e-02 0.0000000000000000e+00  3.0929543154201311e-01 -5.4840704146573035e-02 0.0000000000000000e+00  2.0393047678925283e-01 1.2093161477266330e-05 0.0000000000000000e+00  2.0857774051475853e-01 -2.0896514926470922e-02 0.0000000000000000e+00  2.0314451169565009e-01 9.2329690371906041e-04 0.0000000000000000e+00  2.1399062841077196e-01 2.0907752234037348e-03 0.0000000000000000e+00  2.0533771951615382e-01 -2.8151901922498094e-03 0.0000000000000000e+00  -1.0466271774765586e-02 -9.2468697467753625e-04 0.0000000000000000e+00  1.1168157754731795e-01 6.3006916476824511e-05 0.0000000000000000e+00  1.1529975537335332e-01 -3.4620626070038245e-03 0.0000000000000000e+00  1.0096838953258218e-01 -1.0112650797607018e-02 0.0000000000000000e+00  6.3135298351511271e-02 1.7770111178269290e-02 0.0000000000000000e+00  1.9989245013828669e-01 1.8364493776099478e-05 0.0000000000000000e+00  1.1950961645365611e-01 1.4103840293176209e-06 0.0000000000000000e+00  4.0530902706073041e-01 -3.8832999217885647e-02 0.0000000000000000e+00  2.1296710498848803e-01 2.5118291074490979e-04 0.0000000000000000e+00  2.0517351977145584e-01 3.1567235312987646e-05 0.0000000000000000e+00  3.5785434964029188e-02 6.9640346700064318e-08 0.0000000000000000e+00  8.9408993033604389e-02 -5.7194567200962339e-02 0.0000000000000000e+00  1.5901726839099012e-01 4.2376116158788973e-02 0.0000000000000000e+00  2.1504646544133674e-01 3.6926074959679541e-05 0.0000000000000000e+00  2.0312477917729302e-01 4.5170947091180885e-04 0.0000000000000000e+00  9.5272362238550498e-02 -1.0044851908859079e-02 0.0000000000000000e+00  2.2573075711783822e-01 -4.2673153598351762e-02 0.0000000000000000e+00  3.8074102461433207e-01 3.5779615688131310e-02 0.0000000000000000e+00  1.3002531597556344e-01 5.1524885725073757e-04 0.0000000000000000e+00  1.1004011367827275e-01 5.7890352721338929e-05 0.0000000000000000e+00  1.2244709931653285e-01 -6.4039058252662030e-06 0.0000000000000000e+00  -3.0543860999401287e-03 2.3227104995103619e-02 0.0000000000000000e+00  3.3356381833866910e-01 2.0634736253500074e-08 0.0000000000000000e+00  1.1427795996035069e-01 1.1714080370746954e-03 0.0000000000000000e+00  3.9161220047976147e-01 5.4494201025695804e-03 0.0000000000000000e+00  1.2666799285946689e-01 4.4707166056471118e-07 0.0000000000000000e+00  2.0512392732594481e-01 -1.2764271406680152e-02 0.0000000000000000e+00  1.1852651390548521e-01 -6.7284706729854875e-08 0.0000000000000000e+00  2.1303774120598523e-01 7.5323257231201119e-06 0.0000000000000000e+00  1.2245155768054784e-01 1.0675019771346527e-05 0.0000000000000000e+00  2.1733316624919694e-01 -5.9802514773956563e-08 0.0000000000000000e+00  1.2245806564716787e-01 1.2608601660629860e-05 0.0000000000000000e+00  1.9995376747550503e-01 2.3019193410634491e-03 0.0000000000000000e+00  2.1580076872709655e-01 3.4797092120169490e-06 0.0000000000000000e+00  1.2549016161339821e-01 -2.4062668391611433e-04 0.0000000000000000e+00  9.9246343115780775e-02 8.4350178819916671e-04 0.0000000000000000e+00  1.9837501956629300e-01 2.8425939648895971e-03 0.0000000000000000e+00  4.6668561470876363e-02 -1.3458562001538289e-02 0.0000000000000000e+00  3.1635951994212669e-01 -1.6442781310968158e-02 0.0000000000000000e+00  2.8761765312924420e-01 -1.9582535941302503e-02 0.0000000000000000e+00  4.1579470113517319e-01 -4.9286196220281103e-02 0.0000000000000000e+00  1.1217641571674192e-01 2.3704688252041553e-04 0.0000000000000000e+00  3.3037921857944930e-01 -6.5053590546359952e-02 0.0000000000000000e+00  2.6861155635367084e-01 -2.4835622517756104e-02 0.0000000000000000e+00  1.9528012989303004e-01 1.2641193394113522e-05 0.0000000000000000e+00  2.2289316335803361e-01 -2.5917397915646952e-02 0.0000000000000000e+00  9.3853114688401559e-02 6.5123294002741712e-06 0.0000000000000000e+00  1.3165653242438652e-01 -1.3681006032311207e-02 0.0000000000000000e+00  2.3009697399328263e-01 1.8089971783