<?xml version="1.0"?>
<VTKFile type="UnstructuredGrid"  version="0.1"  >
<UnstructuredGrid>
<Piece  NumberOfPoints="1404" NumberOfCells="2604">
<Points>
<DataArray  type="Float64"  NumberOfComponents="3"  format="ascii">0 0.41 0  0 0 0  2.2 0 0  2.2 0.41 0  0.2353553390593274 0.2353553390593274 0  0.25 0.2 0  0.2353553390593274 0.1646446609406726 0  0.2 0.15 0  0.1646446609406726 0.1646446609406726 0  0.15 0.2 0  0.1646446609406726 0.2353553390593274 0  0.2 0.25 0  0.6923879532511287 0.188268343236509 0  0.7 0.15 0  0.6923879532511287 0.1117316567634909 0  0.6707106781186547 0.07928932188134523 0  0.6382683432365089 0.05761204674887133 0  0.6 0.04999999999999999 0  0.5617316567634909 0.05761204674887134 0  0.5292893218813453 0.07928932188134524 0  0.5076120467488713 0.111731656763491 0  0.5 0.15 0  0.5076120467488713 0.188268343236509 0  0.5292893218813453 0.2207106781186547 0  0.561731656763491 0.2423879532511287 0  0.6 0.25 0  0.6382683432365089 0.2423879532511287 0  0.6707106781186547 0.2207106781186547 0  1.1 0 0  0 0.205 0  1.1 0.41 0  0.55 0 0  0.55 0.41 0  0.275 0 0  0.8250000000000001 0 0  0.275 0.41 0  0.8250000000000001 0.41 0  0.6875 0 0  0.61875 0 0  1.65 0.41 0  1.65 0 0  1.375 0 0  1.375 0.41 0  1.925 0 0  1.925 0.41 0  1.5125 0.205 0  1.7875 0.205 0  0.9625000000000001 0.205 0  1.2375 0.205 0  2.2 0.205 0  1.99375 0.2152743902439024 0  0.4125 0.41 0  2.0625 0 0  2.0625 0.41 0  2.2 0.3075 0  1.7875 0.41 0  1.375 0.1486128048780488 0  1.5125 0 0  1.7875 0 0  1.5125 0.41 0  0.9625000000000001 0.41 0  0.4125 0 0  0.1375 0 0  0.1375 0.41 0  0.6875 0.41 0  0.9625000000000001 0 0  1.2375 0 0  1.1 0.1486128048780488 0  1.2375 0.41 0  1.65 0.1486128048780487 0  0.823495464168302 0.2603780552348366 0  0.3738707794507017 0.2720196349488618 0  0.3662291281331582 0.1311456406657909 0  1.676715909090909 0.2793064024390244 0  1.126715909090909 0.2793064024390244 0  1.348284090909091 0.2793064024390244 0  0.8287581077665108 0.1302150898054257 0  1.894702181800738 0.1282910975492754 0  2.092797818199262 0.1282910975492754 0  1.85625 0.3075 0  0 0.3075 0  0 0.1025 0  2.099172119769978 0.25625 0  0.4752414543992246 0.3180372603390748 0  1.99375 0.08395950269330846 0  1.459960956013612 0.3075 0  1.569025960719943 0.2986889805672169 0  1.03125 0.3278689922742084 0  1.959375 0.3126371951219512 0  1.749222215368287 0.1025 0  1.275777784631713 0.1025 0  0.9228016959331474 0.3075 0  1.000777784631713 0.1025 0  2.2 0.1025 0  1.225938124459196 0.3075 0  1.550777784631713 0.1025 0  1.44375 0.07430640243902442 0  1.16875 0.07430640243902439 0  0.7562500000000001 0.3358727844323386 0  0.89375 0 0  1.899250267340833 0.2229966846119207 0  0.61875 0.41 0  1.766482954545455 0.2934032012195123 0  1.046078563095834 0.2389031808701145 0  1.421109702350723 0.2261157654379721 0  0.07567171807980319 0.25625 0  0.2511897295290552 0.3235829392832554 0  0.07655002503762308 0.1488653460959645 0  0.1377245246847496 0.3206030474919778 0  0.6694099692696568 0.3242771941727899 0  0.9168971191497528 0.1295727156104653 0  0.7562500000000001 0 0  2.118919042110979 0.3422084711244843 0  2.13125 0 0  0.06875000000000001 0 0  1.30625 0.41 0  1.597888256393107 0.2173787389261347 0  0.34375 0.41 0  0.2493272016354703 0.08091360081773515 0  0.5588896233436766 0.3264056208677571 0  1.829299675393195 0.07400700849299596 0  0.1334079128307869 0.08523463035786674 0  1.71875 0.41 0  0.06875000000000001 0.41 0  1.16875 0.41 0  2.038220665644273 0.332420740103091 0  0.8810647413215221 0.2027360103977071 0  0.34375 0 0  0.7453891198966415 0.2471459041008237 0  0.42112093004955 0.1988123139090554 0  0.8314023090855964 0.3351170841770613 0  0.89375 0.41 0  0.7906250000000001 0.06615386481594063 0  1.452769549894695 0.1548122580621249 0  1.369219062229598 0.07430640243902442 0  1.30625 0 0  1.07420695807087 0.07430640243902439 0  1.720943423819132 0.1714577452753128 0  1.157188124459196 0.205 0  1.304056576180868 0.1714577452753128 0  1.67579304192913 0.07430640243902437 0  1.209670467133757 0.136210026696477 0  0.4312800784902823 0.08036147352247747 0  0.8723959680194693 0.07066860609690805 0  1.025335513626278 0.1700681449722324 0  0.7945632284247136 0.1940204203251442 0  0.378125 0.3452261501101892 0  0.3307109909790086 0.2037165635083759 0  0.3009701032039409 0.2702970083403109 0  0.20625 0.41 0  1.58125 0 0  0.4812500000000001 0 0  0.9838963872396855 0.2722244191167347 0  0.06772484939107212 0.3260067317374387 0  0.20625 0 0  1.58125 0.41 0  1.631724228912893 0.3381867502687533 0  1.825608881788174 0.14499488549201 0  1.85625 0 0  1.44375 0 0  1.44375 0.41 0  1.85625 0.41 0  2.13125 0.41 0  0.7562500000000001 0.41 0  0.4812500000000001 0.41 0  1.16875 0 0  1.03125 0.41 0  1.03125 0 0  1.71875 0 0  1.99375 0 0  1.99375 0.41 0  0.9408708167433545 0.0651989315768642 0  1.340625 0.3489494290853124 0  1.134375 0.3489494290853123 0  1.700180620188976 0.3438659752031281 0  0.29668452290037 0.1318471691375986 0  0.3175441051360096 0.06496934809856265 0  0.06509151636162461 0.08140814015999148 0  2.135782184673599 0.07126652247502523 0  1.668441847249787 0.2129203728327609 0  1.295782514339747 0.2378437748815763 0  1.409375 0.3520314716057996 0  2.129248544730567 0.1906135162504124 0  2.060771381434487 0.1989445750470348 0  2.013252586573865 0.1496169464686054 0  1.942766402200229 0.1734448904596831 0  1.895522487186454 0.06076163953489683 0  2.069553871656643 0.06605731020975725 0  0.4670911801404742 0.2498408582391372 0  0.7622743084658112 0.1264100838268133 0  1.274680914880868 0.3520219391081363 0  0.3148669572599245 0.3331753056385887 0  1.614713220494657 0.09473434380863296 0  1.72990325744076 0.2380068107952482 0  1.356580098625191 0.2120393231351682 0  2.034370752044885 0.2668681600792073 0  1.51768709249349 0.3426260931494756 0  1.561883724969884 0.1650446847858835 0  1.197344062229598 0.2523725417393646 0  1.804085235518364 0.3468178408964637 0  1.817887819205233 0.2589243285818559 0  1.905897727272727 0.3485060975609756 0  0.7296439733931823 0.06337466644369745 0  0.4250935971865949 0.1394919578475796 0  0.3773030136511669 0.05130372097998036 0  1.192836486056382 0.3562350748565544 0  1.1029124365364 0.226143510831178 0  1.28257088594801 0.2944411014911587 0  0.1905185804731426 0.06029880676029167 0  1.474860187679412 0.2504218616229368 0  1.406767003493824 0.2829282258560709 0  0.5209826960981064 0.2830664557824064 0  0.5131119502780163 0.3617405848213254 0  0.1948220106098172 0.3081993407644811 0  1.845656689180403 0.1998310418452388 0  2.144958525570388 0.2909790873294231 0  2.2 0.15375 0  0.8833025251326762 0.2625402923007629 0  0.171875 0.3653875762360952 0  1.57794966442982 0.3540357145964566 0  0.446875 0.366068291212731 0  0.4272051715206439 0.2891929346190664 0  1.508991196088596 0.1421783375065625 0  1.50436820029908 0.06143401634903343 0  1.223857000523521 0.08235548624535324 0  0.6137904613287555 0.3066826366281556 0  1.153316824384777 0.1289850171317838 0  0.9751573703656133 0.327632618473408 0  2.148922302309752 0.1258841779285271 0  0.9281250000000001 0.3643758685795699 0  1.621993280276081 0.2841214267927899 0  1.550118654119087 0.2461998729100966 0  1.327182649291491 0.1216967252533594 0  0.9939955742738924 0.04663549843168518 0  1.753125 0.04556020050186112 0  1.271875 0.04556020050186116 0  0.9734326767716519 0.1506854560854393 0  0.103125 0.3675775577080512 0  1.94956388244759 0.1180512551534177 0  1.949997712993411 0.04965831614304109 0  0.717433898748555 0.295596016333797 0  1.771961817615021 0.1530278789497521 0  1.909246823951428 0.2812757146784527 0  0 0.35875 0  1.050632804931928 0.1226269704412814 0  0.05695108326502596 0.2024009637347154 0  1.948575539857022 0.2445328248721197 0  1.697271520964565 0.1233917627620729 0  1.065625 0.3689344961371042 0  1.085849084308977 0.3170853572226867 0  0.1015495998772944 0.04226029099983852 0  1.577403511714593 0.05463601888079143 0  1.751571320346033 0.3651102912045228 0  2.2 0.35875 0  0.7441773632462837 0.1786786606458751 0  0 0.05125 0  1.466879772203159 0.3611261772912453 0  0.6282230348858767 0.3577675483994025 0  1.990280163552011 0.3564754268533217 0  1.17471064520912 0.2990917256188288 0  0 0.25625 0  2.2 0.25625 0  2.2 0.05125 0  0 0.15375 0  1.853978576207987 0.35875 0  1.515638456102889 0.2882700110184686 0  2.150453692751374 0.2387066338105111 0  1.323782677156475 0.04897634338873398 0  1.409375 0.03715320121951221 0  1.406484531114799 0.1087852750766809 0  1.134375 0.03715320121951219 0  0.721875 0.3729363922161693 0  0.7941695928236929 0.3696489254637395 0  0.7934827162619036 0.3013409431456604 0  1.627401732573545 0.04552157221025036 0  0.9352049974617431 0.2507047965699472 0  0.8763260682738339 0.3611103317460093 0  2.045405893604797 0.1105340662939892 0  1.255408269734577 0.1577307500159216 0  2.028125 0.03707597992059326 0  1.003030137506755 0.3689344961371042 0  1.248258025468107 0.2565907092181813 0  1.203125 0.03661323374043041 0  0.4800125512335631 0.0549472816999725 0  2.072662025974815 0.2975086504196739 0  0.240625 0.3729825336867542 0  1.113252391110535 0.10238286244357 0  1.071052763974265 0.1885202618768825 0  0.8738809401657862 0.3106483608284829 0  0.6786819423003397 0.2677558482644021 0  1.887722846421017 0.1760882698830035 0  1.472640588990488 0.1118278026240017 0  0.5843750000000001 0.41 0  1.865937103925594 0.2604137786483804 0  1.463913572748262 0.2030442564990043 0  1.376426316059077 0.3186741374914345 0  0.1038643885363755 0.2162701735320032 0  0.1769473813227781 0.1070849728467114 0  0.458787839809176 0.171541653775316 0  0.240625 0 0  0.04179569703428024 0.2877217852556549 0  0.1258346557601885 0.2699740073054968 0  1.722140693354707 0.282908100935778 0  0.41206179117512 0.2448172567039922 0  0.3702471778075604 0.2265217604228704 0  0.3714881805374215 0.1786967818665642 0  1.77397096061971 0.2481483237422926 0  2.105123889160691 0.03743885948498647 0  1.001138337938679 0.229719337663998 0  1.051242910646791 0.2854826559431138 0  1.395420985247586 0.18
[...]
<PointData  Vectors="f_37"> 
<DataArray  type="Float64"  Name="f_37"  NumberOfComponents="3" format="ascii">2.0600029763423210e-07 -1.4442791032417048e-08 0.0000000000000000e+00  -4.1906256052196235e-06 -6.1049055122964773e-07 0.0000000000000000e+00  -1.0952879183235947e-06 2.2060721265418033e-09 0.0000000000000000e+00  -1.3635879931238440e-06 -2.2192158389191870e-09 0.0000000000000000e+00  2.9464159746757548e-06 -9.2223445218578384e-07 0.0000000000000000e+00  2.3205438443801377e-06 2.7112804343437376e-07 0.0000000000000000e+00  4.2575648641597950e-07 6.9604658051300368e-07 0.0000000000000000e+00  -3.1018079268234332e-06 1.2011172569268149e-06 0.0000000000000000e+00  3.7873660531547550e-06 -3.5913404957917377e-08 0.0000000000000000e+00  -1.6167771691245185e-06 -4.8651144596436199e-06 0.0000000000000000e+00  -1.5415206020178446e-06 1.8391542759214925e-07 0.0000000000000000e+00  2.2326033490322777e-06 3.3850506432370811e-07 0.0000000000000000e+00  3.1151320537579651e-06 -7.1809276783381389e-06 0.0000000000000000e+00  1.2121535094497110e-06 -4.1681084848161770e-06 0.0000000000000000e+00  8.8531609919046563e-08 -1.2560947930884046e-06 0.0000000000000000e+00  1.8538546876467783e-06 1.2101922161918763e-06 0.0000000000000000e+00  4.9354179726734909e-06 7.6363926268335622e-07 0.0000000000000000e+00  3.1146061314388529e-01 8.3801859410004537e-02 0.0000000000000000e+00  2.3988257285515713e-06 -1.5091346074738235e-07 0.0000000000000000e+00  -2.0121098757400177e-07 2.5790334566034404e-07 0.0000000000000000e+00  -2.0823216904592385e-06 -4.8209182197518239e-06 0.0000000000000000e+00  2.3877798751584292e-06 6.8026478454264478e-06 0.0000000000000000e+00  6.9525219803586088e-06 7.2428261013726471e-06 0.0000000000000000e+00  3.8063942666564673e-06 -6.3543458615561598e-06 0.0000000000000000e+00  -6.8693606858071320e-06 -6.3859057140244533e-06 0.0000000000000000e+00  -9.7576140620815514e-06 3.5867397520092870e-07 0.0000000000000000e+00  -7.6640256925870839e-06 2.7691202834000658e-06 0.0000000000000000e+00  2.3892519773458562e-06 -2.7952550170853093e-06 0.0000000000000000e+00  -1.2163665308064931e-06 5.8461827235049676e-08 0.0000000000000000e+00  1.6583336516235539e-01 -7.6050765676523402e-07 0.0000000000000000e+00  -1.6984433302029431e-06 -1.3777172657350469e-08 0.0000000000000000e+00  5.0202864631050437e-06 -3.8858803478605973e-07 0.0000000000000000e+00  -3.2312407940029149e-07 -3.8557408880497436e-07 0.0000000000000000e+00  1.6877383663726210e-07 6.7190185320859440e-10 0.0000000000000000e+00  -1.4923633676892137e-06 1.1749203764015486e-08 0.0000000000000000e+00  -1.3350625024845379e-06 -5.2318790959495721e-07 0.0000000000000000e+00  1.0012912264350526e-06 5.1312084590294784e-07 0.0000000000000000e+00  -1.4120814435512697e-06 -2.1961231198567333e-07 0.0000000000000000e+00  -4.7012142778968842e-06 -1.0564834782896759e-06 0.0000000000000000e+00  -1.5039112585253193e-06 9.9053871819017520e-10 0.0000000000000000e+00  -1.9631302900218042e-06 -3.4570028657384425e-09 0.0000000000000000e+00  -1.2233644999424850e-06 -2.9903639472053418e-09 0.0000000000000000e+00  -7.2424284225342545e-07 -4.7669648199962692e-09 0.0000000000000000e+00  -9.5733766570583729e-07 8.5732937680040801e-10 0.0000000000000000e+00  -3.5522283488583191e-07 -1.7648367040746539e-09 0.0000000000000000e+00  1.9707106881941450e-01 -7.1437944735352639e-05 0.0000000000000000e+00  1.9706496488503161e-01 7.8295138145176249e-06 0.0000000000000000e+00  2.0133978741832020e-01 -5.0148662928603149e-02 0.0000000000000000e+00  1.9721387223733911e-01 -2.3491762415313606e-03 0.0000000000000000e+00  1.9707870436477976e-01 -1.5875113560796091e-05 0.0000000000000000e+00  1.9707170250300851e-01 -1.3790421529713624e-06 0.0000000000000000e+00  -6.4876158774556786e-07 1.2490593446975245e-07 0.0000000000000000e+00  -2.2466489394332939e-07 2.6076875944505398e-09 0.0000000000000000e+00  -1.0148424741110976e-06 3.9259510888864596e-09 0.0000000000000000e+00  1.9248798506005954e-01 1.0882439123203484e-07 0.0000000000000000e+00  -1.3597624795950093e-06 -1.7328791030570652e-09 0.0000000000000000e+00  1.9655168190703837e-01 -3.7487691591274534e-04 0.0000000000000000e+00  -1.8885778052473030e-06 -2.3856852847312302e-10 0.0000000000000000e+00  -1.6175309975756085e-06 -1.5694360340590973e-09 0.0000000000000000e+00  -1.1432328829260924e-06 -3.4978353872350139e-09 0.0000000000000000e+00  -2.5992338104998867e-06 -1.4586106528389507e-07 0.0000000000000000e+00  -9.3079958938230360e-07 -1.4066554571064509e-07 0.0000000000000000e+00  -3.5880598045653344e-07 1.2627118545721824e-07 0.0000000000000000e+00  4.7461725610598953e-08 7.5097827219147534e-07 0.0000000000000000e+00  -1.0990204469457587e-06 -6.3346125309437077e-08 0.0000000000000000e+00  -2.5879309145944693e-06 1.8094170322464493e-07 0.0000000000000000e+00  4.9341591223555269e-07 -1.6086477394800526e-09 0.0000000000000000e+00  1.9160866110296823e-01 -9.7288524128493325e-03 0.0000000000000000e+00  -5.5616593617121634e-07 -4.2678228763305994e-09 0.0000000000000000e+00  1.9684955090949388e-01 -5.3195764114933153e-06 0.0000000000000000e+00  3.1433672340717045e-01 -1.2688875469421071e-01 0.0000000000000000e+00  1.2825725554564724e-01 3.2373243036247883e-02 0.0000000000000000e+00  2.8018536329120325e-01 1.2054893961884412e-01 0.0000000000000000e+00  1.9628021985596772e-01 5.5915916776829095e-06 0.0000000000000000e+00  2.0220366122856273e-01 -4.8168499173478182e-03 0.0000000000000000e+00  1.9678115760821863e-01 -3.9796652120875886e-04 0.0000000000000000e+00  6.5514619700755963e-02 -2.4539410980563073e-02 0.0000000000000000e+00  1.9613626790405889e-01 1.9521948043075110e-05 0.0000000000000000e+00  1.9610006111548303e-01 -4.7631641782834425e-06 0.0000000000000000e+00  1.9250759446938845e-01 -2.8921829096164017e-06 0.0000000000000000e+00  7.5234642296895679e-02 8.1937830448700235e-07 0.0000000000000000e+00  2.7319272066423822e-01 -5.5262151228250276e-07 0.0000000000000000e+00  1.9692604309359846e-01 -7.2341126267040188e-06 0.0000000000000000e+00  2.8705179761726884e-01 8.2027598059996293e-02 0.0000000000000000e+00  1.8499836579408629e-01 -1.3411794819968293e-05 0.0000000000000000e+00  1.9261669136937531e-01 -1.7544171775123395e-05 0.0000000000000000e+00  1.9434943239586971e-01 1.2549713870467652e-06 0.0000000000000000e+00  1.9837239834144407e-01 -3.7806814958901216e-03 0.0000000000000000e+00  1.9102907916079581e-01 -7.9995889390647352e-07 0.0000000000000000e+00  1.9252426412924187e-01 -2.5657586889548697e-06 0.0000000000000000e+00  1.9128530279775299e-01 -7.3429263267613685e-04 0.0000000000000000e+00  2.5403112293054297e-01 -2.9153540907941408e-02 0.0000000000000000e+00  1.6935122752082571e-01 -1.8048156701170777e-02 0.0000000000000000e+00  1.9252584349868551e-01 -1.6256227222378389e-05 0.0000000000000000e+00  1.9453688674224454e-01 -1.0027079424296600e-03 0.0000000000000000e+00  1.9238036690351631e-01 -1.3327076914690724e-07 0.0000000000000000e+00  1.7795025290171768e-01 -4.8249158230536797e-07 0.0000000000000000e+00  1.7460680085043037e-01 -1.5906626908695866e-03 0.0000000000000000e+00  3.8576381809985216e-01 -7.0148714017500044e-02 0.0000000000000000e+00  -2.7881639769153674e-06 1.5916138076165137e-07 0.0000000000000000e+00  1.9707644097859514e-01 3.0654410388409965e-06 0.0000000000000000e+00  2.7346390586384330e-08 -1.4196326496106425e-07 0.0000000000000000e+00  1.9500239016655568e-01 3.4872756417186436e-05 0.0000000000000000e+00  2.0641070621384780e-01 -1.7222088364456645e-02 0.0000000000000000e+00  1.9713897724538385e-01 -2.4070524153294677e-04 0.0000000000000000e+00  1.2936259608753090e-01 6.9725047137433757e-02 0.0000000000000000e+00  2.3653577117839697e-01 1.2939911673157264e-02 0.0000000000000000e+00  2.0882509272633412e-01 2.6526576989043545e-02 0.0000000000000000e+00  1.4823350098453553e-01 8.8053575869490294e-02 0.0000000000000000e+00  4.5809852344337715e-01 -4.2563689115298002e-02 0.0000000000000000e+00  1.4565349556665860e-01 -4.4855118855579655e-02 0.0000000000000000e+00  -1.6809659444393752e-07 9.6823089492103535e-08 0.0000000000000000e+00  1.7173750034244289e-01 1.2863455099250281e-05 0.0000000000000000e+00  -2.3014731696684101e-06 -8.7827867601940355e-09 0.0000000000000000e+00  -7.4651265606336572e-07 -1.8966403497556949e-08 0.0000000000000000e+00  -4.7665086635104268e-07 -2.6097414302818391e-09 0.0000000000000000e+00  1.9706430349036094e-01 -1.0696732698226077e-05 0.0000000000000000e+00  -2.0495957471706815e-06 1.1694837288304688e-07 0.0000000000000000e+00  3.9506229178903135e-01 5.4654510256461133e-02 0.0000000000000000e+00  4.0282600555082626e-01 6.4229686018100723e-02 0.0000000000000000e+00  1.7783796810026292e-01 -1.4877216052427229e-05 0.0000000000000000e+00  3.4307365705723925e-01 1.7577486841248199e-02 0.0000000000000000e+00  -1.5829077135741308e-06 -8.9865398947079875e-11 0.0000000000000000e+00  1.7454793933278676e-06 7.4954899140348428e-07 0.0000000000000000e+00  -1.0902938936925364e-06 -2.7523462218844527e-09 0.0000000000000000e+00  1.8070983206814276e-01 -4.0494428356955566e-06 0.0000000000000000e+00  1.8620240800157667e-01 -1.0594220315207914e-01 0.0000000000000000e+00  3.4042823763897740e-07 -6.5498999961006692e-07 0.0000000000000000e+00  2.3267652962624905e-01 -7.8191029302989143e-02 0.0000000000000000e+00  1.5455419892299807e-01 1.6416758410128693e-01 0.0000000000000000e+00  2.9809003773236492e-01 -5.1885087364586878e-02 0.0000000000000000e+00  7.4968060281737762e-07 -2.6188314489284375e-07 0.0000000000000000e+00  1.1594920134484550e-01 3.0764033570844642e-02 0.0000000000000000e+00  1.9682975057729413e-01 -1.2536955061720299e-04 0.0000000000000000e+00  1.7778322744704420e-01 -7.1825928902834329e-05 0.0000000000000000e+00  -2.1209191829526641e-07 -1.0884750732385626e-09 0.0000000000000000e+00  1.6776343558835347e-01 -5.2531747074745141e-03 0.0000000000000000e+00  1.9702003707820226e-01 -4.4591256430330835e-07 0.0000000000000000e+00  1.9758840059977437e-01 -5.7560428609999088e-03 0.0000000000000000e+00  1.9665533924023634e-01 -1.0452553999230904e-03 0.0000000000000000e+00  1.7802300060361739e-01 -7.7008915231932422e-06 0.0000000000000000e+00  1.9444259893649071e-01 -2.5515375352709374e-03 0.0000000000000000e+00  1.9697453402614051e-01 6.8837171484789862e-03 0.0000000000000000e+00  1.1356049678203933e-01 -1.0276944113321635e-02 0.0000000000000000e+00  1.9069141896838146e-01 -2.3754667636904508e-02 0.0000000000000000e+00  8.9695697377112665e-02 -6.9691513810724220e-02 0.0000000000000000e+00  2.2832195676125580e-01 1.1311564020129334e-02 0.0000000000000000e+00  5.7247444008277283e-02 5.6323015306266620e-02 0.0000000000000000e+00  9.2858631739740960e-02 -1.8071798918195645e-02 0.0000000000000000e+00  -3.2624391740202906e-06 -6.7591946344682242e-07 0.0000000000000000e+00  -9.4630076907612527e-07 -3.3909438921059125e-09 0.0000000000000000e+00  -2.0847780623108346e-06 6.2639013827234276e-07 0.0000000000000000e+00  2.2634112838726600e-01 -2.5425326234755793e-02 0.0000000000000000e+00  7.8023342683516211e-02 2.5756856054658106e-02 0.0000000000000000e+00  -2.0584672291182508e-06 8.9969310534046745e-08 0.0000000000000000e+00  -1.1650430373509088e-06 5.5832053914582550e-10 0.0000000000000000e+00  1.7582052582524177e-01 1.6556758377085562e-05 0.0000000000000000e+00  1.9674376956322365e-01 5.5424082056507963e-06 0.0000000000000000e+00  -1.2112359664458790e-06 1.1952140289198783e-09 0.0000000000000000e+00  -1.5022346039771936e-06 -4.2397227866603510e-11 0.0000000000000000e+00  -1.3463817698986107e-06 -2.2437550979662224e-09 0.0000000000000000e+00  -4.6540731463561890e-07 9.9399161931215029e-10 0.0000000000000000e+00  -4.5584039714354995e-07 -1.1413411922667167e-09 0.0000000000000000e+00  1.9750880263076042e-06 1.6353522198608751e-07 0.0000000000000000e+00  -3.0226374723977519e-06 -3.7383578188614751e-07 0.0000000000000000e+00  -8.9799858426690502e-07 2.1210505867762747e-08 0.0000000000000000e+00  -1.5341999941219154e-06 -9.2896096927073820e-08 0.0000000000000000e+00  -4.7549246143817852e-07 1.1061224457738081e-07 0.0000000000000000e+00  -1.6160170376263215e-07 -5.1268079185545311e-10 0.0000000000000000e+00  -1.5325741124586049e-06 2.9488888247756022e-09 0.0000000000000000e+00  -6.8904769207921112e-07 -1.6040562670696468e-09 0.0000000000000000e+00  1.3117437008457894e-01 -1.4413627085961346e-02 0.0000000000000000e+00  1.6386972547246054e-01 -1.9405320087404900e-05 0.0000000000000000e+00  1.6674652473566551e-01 -5.8755266142418157e-04 0.0000000000000000e+00  1.6992078843634098e-01 9.0758211477385782e-06 0.0000000000000000e+00  3.0192971308086508e-01 1.0445629692565418e-01 0.0000000000000000e+00  3.0304201720274532e-01 5.6791524968078447e-02 0.0000000000000000e+00  3.1542724472357619e-01 2.7456506318297016e-02 0.0000000000000000e+00  1.7533239796392033e-01 3.5607241862068166e-06 0.0000000000000000e+00  1.9706723124468653e-01 3.6198334743740224e-06 0.0000000000000000e+00  1.9753577363804564e-01 -1.0911451196948083e-03 0.0000000000000000e+00  1.5938082044868535e-01 6.9852555504076293e-06 0.0000000000000000e+00  1.9708012860340049e-01 -1.0239585164672695e-05 0.0000000000000000e+00  1.9707281253899217e-01 -1.0882149067974558e-05 0.0000000000000000e+00  1.9684474715160521e-01 -5.5042230385441269e-06 0.0000000000000000e+00  1.9704062807149128e-01 2.3036005077656942e-06 0.0000000000000000e+00  1.6331445876584180e-01 -3.5287599900361941e-06 0.0000000000000000e+00  1.6980024412649991e-01 -7.6538913291162170e-06 0.0000000000000000e+00  2.1596110415986380e-01 1.7572555254349975e-01 0.0000000000000000e+00  9.6881991921090246e-03 3.2018516755368508e-02 0.0000000000000000e+00  1.5982436764162883e-01 -5.6690243137781129e-05 0.0000000000000000e+00  2.3187357360319991e-01 -1.1749393090519280e-02 0.0000000000000000e+00  1.9013793869966558e-01 1.0702559326981644e-05 0.0000000000000000e+00  1.9703834450864552e-01 6.8694023966587786e-06 0.0000000000000000e+00  1.9714165115236590e-01 -5.7373002935105343e-04 0.0000000000000000e+00  1.9676479217430451e-01 -5.5334721474610359e-07 0.0000000000000000e+00  1.7123379633347793e-01 3.0878277230802725e-05 0.0000000000000000e+00  1.9699371763156900e-01 -2.4512656544379249e-05 0.0000000000000000e+00  1.9901437315311277e-01 -3.0074083878171517e-03 0.0000000000000000e+00  1.6637432303696464e-01 -2.3438916276840476e-06 0.0000000000000000e+00  1.9688513808605329e-01 6.8356719368759891e-06 0.0000000000000000e+00  1.6425913640243614e-01 2.4546945693760255e-06 0.0000000000000000e+00  1.4595029255038153e-01 6.3935444853820592e-02 0.0000000000000000e+00  1.9644965694557792e-01 1.0896388402425775e-01 0.0000000000000000e+00  1.8867677858943269e-01 2.0887085580488646e-02 0.0000000000000000e+00  1.5407661969316513e-01 -1.8425626875238441e-04 0.0000000000000000e+00  2.0056743728958210e-01 -9.8300070949350008e-03 0.0000000000000000e+00  1.9602645338790065e-01 -6.8585843729841028e-04 0.0000000000000000e+00  3.8648188758007590e-01 2.3889384247689750e-02 0.0000000000000000e+00  1.9704914562090459e-01 -8.9177884616742248e-05 0.0000000000000000e+00  1.9628063470838444e-01 -1.6471230047195284e-04 0.0000000000000000e+00  3.4673183021137577e-01 1.5334774164680040e-01 0.0000000000000000e+00  3.0756719022875018e-01 3.5816924554300932e-02 0.0000000000000000e+00  2.3284266154941297e-01 9.0152347226625323e-02 0.0000000000000000e+00  1.9706507368430992e-01 1.0457630438904008e-05 0.0000000000000000e+00  1.9538028796931384e-01 -1.7347387609909059e-05 0.0000000000000000e+00  1.9694679845117646e-01 -9.0240410310715444e-06 0.0000000000000000e+00  2.7991590636251834e-01 -9.2293671579435244e-02 0.0000000000000000e+00  1.3430994282708819e-01 3.6726729845742705e-02 0.0000000000000000e+00  1.5633555965011428e-01 1.5507348436557902e-05 0.0000000000000000e+00  2.3282797857104257e-01 2.5673044301719739e-02 0.0000000000000000e+00  2.0561204890041296e-01 7.6278971936118045e-02 0.0000000000000000e+00  1.9664561022278854e-01 -3.8642029189793778e-05 0.0000000000000000e+00  1.6417611097257195e-01 3.7003947896864188e-06 0.0000000000000000e+00  1.8202876401944784e-01 -9.3593328626594575e-04 0.0000000000000000e+00  4.6614456166893631e-01 1.9747821093020198e-02 0.0000000000000000e+00  1.9210668009013415e-01 -4.6552733903809139e-03 0.0000000000000000e+00  2.1078665471037786e-01 -6.9269851363259333e-03 0.0000000000000000e+00  1.9597538707427622e-01 2.3020086351291842e-06 0.0000000000000000e+00  1.5135492168281670e-01 -1.6792780395229285e-03 0.0000000000000000e+00  1.9594033158935051e-01 -3.6133054196546934e-06 0.0000000000000000e+00  1.9701792360348624e-01 -2.8220815507256919e-05 0.0000000000000000e+00  1.9492976228918646e-01 -5.1884486678850292e-04 0.0000000000000000e+00  1.2156803248769768e-01 -5.9156029182666275e-03 0.0000000000000000e+00  1.3790032168318869e-01 -4.2962672216081708e-06 0.0000000000000000e+00  1.3756889027618460e-01 -1.0331050802025095e-04 0.0000000000000000e+00  1.7678474399600461e-01 -3.6629187433986875e-02 0.0000000000000000e+00  5.7104674247728686e-02 1.9660963080498903e-02 0.0000000000000000e+00  1.9516134920751305e-01 -2.6325926976130150e-07 0.0000000000000000e+00  1.4580826162977917e-01 4.4708834477109457e-06 0.0000000000000000e+00  4.2348081884842509e-01 -8.4676062832968038e-02 0.0000000000000000e+00  1.9689191275583093e-01 3.8432167580909679e-06 0.0000000000000000e+00  1.9613996899199282e-01 -8.3043722140277800e-06 0.0000000000000000e+00  3.5785293173786814e-02 8.9552778796150568e-07 0.0000000000000000e+00  1.8335452573955224e-01 -1.3736754556536564e-02 0.0000000000000000e+00  1.5986691578965165e-01 4.2433416421542948e-02 0.0000000000000000e+00  1.9702640814654432e-01 5.5165104039010942e-06 0.0000000000000000e+00  1.9577156611361346e-01 -4.1150336495906081e-06 0.0000000000000000e+00  1.3083846539404498e-01 -5.7170711579347640e-05 0.0000000000000000e+00  1.9841797325550090e-01 -3.3797066008332773e-03 0.0000000000000000e+00  3.7939452640430865e-01 3.7371062462580706e-02 0.0000000000000000e+00  1.5434156308235014e-01 3.5077350888561950e-05 0.0000000000000000e+00  1.3646983396633591e-01 1.5023459984167638e-05 0.0000000000000000e+00  1.4852012377774923e-01 -1.2126127772153680e-06 0.0000000000000000e+00  1.3611761943831536e-03 2.2701845109254819e-02 0.0000000000000000e+00  3.3356396321611775e-01 -4.6138794238414054e-07 0.0000000000000000e+00  1.4424420498289461e-01 4.5376602720297080e-05 0.0000000000000000e+00  4.0432094484333325e-01 -1.0370424306887113e-02 0.0000000000000000e+00  1.5248536340777591e-01 1.3898807834310232e-05 0.0000000000000000e+00  1.9793668887270088e-01 -2.0980241915803371e-03 0.0000000000000000e+00  1.1852635008496505e-01 1.6614548787149722e-07 0.0000000000000000e+00  1.9692561625535462e-01 -7.7670558288596935e-06 0.0000000000000000e+00  1.4857641244879341e-01 -5.3934700895740337e-06 0.0000000000000000e+00  2.1733324139056720e-01 -5.5616503396795068e-07 0.0000000000000000e+00  1.4857892387570509e-01 -1.5092089831477622e-05 0.0000000000000000e+00  1.9567141205908498e-01 -3.9459819241230799e-06 0.0000000000000000e+00  1.9703333658045305e-01 -6.8915925024908449e-06 0.0000000000000000e+00  1.4434939172538078e-01 -2.7721660285187713e-05 0.0000000000000000e+00  1.1928486553708562e-01 2.3049227570619811e-05 0.0000000000000000e+00  1.9362716315183900e-01 -1.4126155642560668e-04 0.0000000000000000e+00  1.1691804870973635e-01 -6.4964778716945283e-04 0.0000000000000000e+00  2.7612044263656194e-01 -2.7398570094110421e-02 0.0000000000000000e+00  2.1008011139646046e-01 -2.4293659200352022e-02 0.0000000000000000e+00  3.8511311290390354e-01 -1.0299494173461549e-01 0.0000000000000000e+00  1.3781313489362237e-01 -4.9934838034825584e-06 0.0000000000000000e+00  2.3827401517612246e-01 -5.8574261184060582e-02 0.0000000000000000e+00  1.7807202116297843e-01 -1.0820468735934872e-02 0.0000000000000000e+00  1.9419982052106624e-01 -3.2799332025945753e-06 0.0000000000000000e+00  1.9605002366615812e-01 -1.7349043299349338e-03 0.0000000000000000e+00  1.1904676072487622e-01 8.1821759135771136e-06 0.0000000000000000e+00  1.3276554430940066e-01 1.3875589542487003e-04 0.000000000000