<?xml version="1.0"?>
<VTKFile type="UnstructuredGrid"  version="0.1"  >
<UnstructuredGrid>
<Piece  NumberOfPoints="1404" NumberOfCells="2604">
<Points>
<DataArray  type="Float64"  NumberOfComponents="3"  format="ascii">0 0.41 0  0 0 0  2.2 0 0  2.2 0.41 0  0.2353553390593274 0.2353553390593274 0  0.25 0.2 0  0.2353553390593274 0.1646446609406726 0  0.2 0.15 0  0.1646446609406726 0.1646446609406726 0  0.15 0.2 0  0.1646446609406726 0.2353553390593274 0  0.2 0.25 0  0.6923879532511287 0.188268343236509 0  0.7 0.15 0  0.6923879532511287 0.1117316567634909 0  0.6707106781186547 0.07928932188134523 0  0.6382683432365089 0.05761204674887133 0  0.6 0.04999999999999999 0  0.5617316567634909 0.05761204674887134 0  0.5292893218813453 0.07928932188134524 0  0.5076120467488713 0.111731656763491 0  0.5 0.15 0  0.5076120467488713 0.188268343236509 0  0.5292893218813453 0.2207106781186547 0  0.561731656763491 0.2423879532511287 0  0.6 0.25 0  0.6382683432365089 0.2423879532511287 0  0.6707106781186547 0.2207106781186547 0  1.1 0 0  0 0.205 0  1.1 0.41 0  0.55 0 0  0.55 0.41 0  0.275 0 0  0.8250000000000001 0 0  0.275 0.41 0  0.8250000000000001 0.41 0  0.6875 0 0  0.61875 0 0  1.65 0.41 0  1.65 0 0  1.375 0 0  1.375 0.41 0  1.925 0 0  1.925 0.41 0  1.5125 0.205 0  1.7875 0.205 0  0.9625000000000001 0.205 0  1.2375 0.205 0  2.2 0.205 0  1.99375 0.2152743902439024 0  0.4125 0.41 0  2.0625 0 0  2.0625 0.41 0  2.2 0.3075 0  1.7875 0.41 0  1.375 0.1486128048780488 0  1.5125 0 0  1.7875 0 0  1.5125 0.41 0  0.9625000000000001 0.41 0  0.4125 0 0  0.1375 0 0  0.1375 0.41 0  0.6875 0.41 0  0.9625000000000001 0 0  1.2375 0 0  1.1 0.1486128048780488 0  1.2375 0.41 0  1.65 0.1486128048780487 0  0.823495464168302 0.2603780552348366 0  0.3738707794507017 0.2720196349488618 0  0.3662291281331582 0.1311456406657909 0  1.676715909090909 0.2793064024390244 0  1.126715909090909 0.2793064024390244 0  1.348284090909091 0.2793064024390244 0  0.8287581077665108 0.1302150898054257 0  1.894702181800738 0.1282910975492754 0  2.092797818199262 0.1282910975492754 0  1.85625 0.3075 0  0 0.3075 0  0 0.1025 0  2.099172119769978 0.25625 0  0.4752414543992246 0.3180372603390748 0  1.99375 0.08395950269330846 0  1.459960956013612 0.3075 0  1.569025960719943 0.2986889805672169 0  1.03125 0.3278689922742084 0  1.959375 0.3126371951219512 0  1.749222215368287 0.1025 0  1.275777784631713 0.1025 0  0.9228016959331474 0.3075 0  1.000777784631713 0.1025 0  2.2 0.1025 0  1.225938124459196 0.3075 0  1.550777784631713 0.1025 0  1.44375 0.07430640243902442 0  1.16875 0.07430640243902439 0  0.7562500000000001 0.3358727844323386 0  0.89375 0 0  1.899250267340833 0.2229966846119207 0  0.61875 0.41 0  1.766482954545455 0.2934032012195123 0  1.046078563095834 0.2389031808701145 0  1.421109702350723 0.2261157654379721 0  0.07567171807980319 0.25625 0  0.2511897295290552 0.3235829392832554 0  0.07655002503762308 0.1488653460959645 0  0.1377245246847496 0.3206030474919778 0  0.6694099692696568 0.3242771941727899 0  0.9168971191497528 0.1295727156104653 0  0.7562500000000001 0 0  2.118919042110979 0.3422084711244843 0  2.13125 0 0  0.06875000000000001 0 0  1.30625 0.41 0  1.597888256393107 0.2173787389261347 0  0.34375 0.41 0  0.2493272016354703 0.08091360081773515 0  0.5588896233436766 0.3264056208677571 0  1.829299675393195 0.07400700849299596 0  0.1334079128307869 0.08523463035786674 0  1.71875 0.41 0  0.06875000000000001 0.41 0  1.16875 0.41 0  2.038220665644273 0.332420740103091 0  0.8810647413215221 0.2027360103977071 0  0.34375 0 0  0.7453891198966415 0.2471459041008237 0  0.42112093004955 0.1988123139090554 0  0.8314023090855964 0.3351170841770613 0  0.89375 0.41 0  0.7906250000000001 0.06615386481594063 0  1.452769549894695 0.1548122580621249 0  1.369219062229598 0.07430640243902442 0  1.30625 0 0  1.07420695807087 0.07430640243902439 0  1.720943423819132 0.1714577452753128 0  1.157188124459196 0.205 0  1.304056576180868 0.1714577452753128 0  1.67579304192913 0.07430640243902437 0  1.209670467133757 0.136210026696477 0  0.4312800784902823 0.08036147352247747 0  0.8723959680194693 0.07066860609690805 0  1.025335513626278 0.1700681449722324 0  0.7945632284247136 0.1940204203251442 0  0.378125 0.3452261501101892 0  0.3307109909790086 0.2037165635083759 0  0.3009701032039409 0.2702970083403109 0  0.20625 0.41 0  1.58125 0 0  0.4812500000000001 0 0  0.9838963872396855 0.2722244191167347 0  0.06772484939107212 0.3260067317374387 0  0.20625 0 0  1.58125 0.41 0  1.631724228912893 0.3381867502687533 0  1.825608881788174 0.14499488549201 0  1.85625 0 0  1.44375 0 0  1.44375 0.41 0  1.85625 0.41 0  2.13125 0.41 0  0.7562500000000001 0.41 0  0.4812500000000001 0.41 0  1.16875 0 0  1.03125 0.41 0  1.03125 0 0  1.71875 0 0  1.99375 0 0  1.99375 0.41 0  0.9408708167433545 0.0651989315768642 0  1.340625 0.3489494290853124 0  1.134375 0.3489494290853123 0  1.700180620188976 0.3438659752031281 0  0.29668452290037 0.1318471691375986 0  0.3175441051360096 0.06496934809856265 0  0.06509151636162461 0.08140814015999148 0  2.135782184673599 0.07126652247502523 0  1.668441847249787 0.2129203728327609 0  1.295782514339747 0.2378437748815763 0  1.409375 0.3520314716057996 0  2.129248544730567 0.1906135162504124 0  2.060771381434487 0.1989445750470348 0  2.013252586573865 0.1496169464686054 0  1.942766402200229 0.1734448904596831 0  1.895522487186454 0.06076163953489683 0  2.069553871656643 0.06605731020975725 0  0.4670911801404742 0.2498408582391372 0  0.7622743084658112 0.1264100838268133 0  1.274680914880868 0.3520219391081363 0  0.3148669572599245 0.3331753056385887 0  1.614713220494657 0.09473434380863296 0  1.72990325744076 0.2380068107952482 0  1.356580098625191 0.2120393231351682 0  2.034370752044885 0.2668681600792073 0  1.51768709249349 0.3426260931494756 0  1.561883724969884 0.1650446847858835 0  1.197344062229598 0.2523725417393646 0  1.804085235518364 0.3468178408964637 0  1.817887819205233 0.2589243285818559 0  1.905897727272727 0.3485060975609756 0  0.7296439733931823 0.06337466644369745 0  0.4250935971865949 0.1394919578475796 0  0.3773030136511669 0.05130372097998036 0  1.192836486056382 0.3562350748565544 0  1.1029124365364 0.226143510831178 0  1.28257088594801 0.2944411014911587 0  0.1905185804731426 0.06029880676029167 0  1.474860187679412 0.2504218616229368 0  1.406767003493824 0.2829282258560709 0  0.5209826960981064 0.2830664557824064 0  0.5131119502780163 0.3617405848213254 0  0.1948220106098172 0.3081993407644811 0  1.845656689180403 0.1998310418452388 0  2.144958525570388 0.2909790873294231 0  2.2 0.15375 0  0.8833025251326762 0.2625402923007629 0  0.171875 0.3653875762360952 0  1.57794966442982 0.3540357145964566 0  0.446875 0.366068291212731 0  0.4272051715206439 0.2891929346190664 0  1.508991196088596 0.1421783375065625 0  1.50436820029908 0.06143401634903343 0  1.223857000523521 0.08235548624535324 0  0.6137904613287555 0.3066826366281556 0  1.153316824384777 0.1289850171317838 0  0.9751573703656133 0.327632618473408 0  2.148922302309752 0.1258841779285271 0  0.9281250000000001 0.3643758685795699 0  1.621993280276081 0.2841214267927899 0  1.550118654119087 0.2461998729100966 0  1.327182649291491 0.1216967252533594 0  0.9939955742738924 0.04663549843168518 0  1.753125 0.04556020050186112 0  1.271875 0.04556020050186116 0  0.9734326767716519 0.1506854560854393 0  0.103125 0.3675775577080512 0  1.94956388244759 0.1180512551534177 0  1.949997712993411 0.04965831614304109 0  0.717433898748555 0.295596016333797 0  1.771961817615021 0.1530278789497521 0  1.909246823951428 0.2812757146784527 0  0 0.35875 0  1.050632804931928 0.1226269704412814 0  0.05695108326502596 0.2024009637347154 0  1.948575539857022 0.2445328248721197 0  1.697271520964565 0.1233917627620729 0  1.065625 0.3689344961371042 0  1.085849084308977 0.3170853572226867 0  0.1015495998772944 0.04226029099983852 0  1.577403511714593 0.05463601888079143 0  1.751571320346033 0.3651102912045228 0  2.2 0.35875 0  0.7441773632462837 0.1786786606458751 0  0 0.05125 0  1.466879772203159 0.3611261772912453 0  0.6282230348858767 0.3577675483994025 0  1.990280163552011 0.3564754268533217 0  1.17471064520912 0.2990917256188288 0  0 0.25625 0  2.2 0.25625 0  2.2 0.05125 0  0 0.15375 0  1.853978576207987 0.35875 0  1.515638456102889 0.2882700110184686 0  2.150453692751374 0.2387066338105111 0  1.323782677156475 0.04897634338873398 0  1.409375 0.03715320121951221 0  1.406484531114799 0.1087852750766809 0  1.134375 0.03715320121951219 0  0.721875 0.3729363922161693 0  0.7941695928236929 0.3696489254637395 0  0.7934827162619036 0.3013409431456604 0  1.627401732573545 0.04552157221025036 0  0.9352049974617431 0.2507047965699472 0  0.8763260682738339 0.3611103317460093 0  2.045405893604797 0.1105340662939892 0  1.255408269734577 0.1577307500159216 0  2.028125 0.03707597992059326 0  1.003030137506755 0.3689344961371042 0  1.248258025468107 0.2565907092181813 0  1.203125 0.03661323374043041 0  0.4800125512335631 0.0549472816999725 0  2.072662025974815 0.2975086504196739 0  0.240625 0.3729825336867542 0  1.113252391110535 0.10238286244357 0  1.071052763974265 0.1885202618768825 0  0.8738809401657862 0.3106483608284829 0  0.6786819423003397 0.2677558482644021 0  1.887722846421017 0.1760882698830035 0  1.472640588990488 0.1118278026240017 0  0.5843750000000001 0.41 0  1.865937103925594 0.2604137786483804 0  1.463913572748262 0.2030442564990043 0  1.376426316059077 0.3186741374914345 0  0.1038643885363755 0.2162701735320032 0  0.1769473813227781 0.1070849728467114 0  0.458787839809176 0.171541653775316 0  0.240625 0 0  0.04179569703428024 0.2877217852556549 0  0.1258346557601885 0.2699740073054968 0  1.722140693354707 0.282908100935778 0  0.41206179117512 0.2448172567039922 0  0.3702471778075604 0.2265217604228704 0  0.3714881805374215 0.1786967818665642 0  1.77397096061971 0.2481483237422926 0  2.105123889160691 0.03743885948498647 0  1.001138337938679 0.229719337663998 0  1.051242910646791 0.2854826559431138 0  1.395420985247586 0.18
[...]
<PointData  Vectors="f_37"> 
<DataArray  type="Float64"  Name="f_37"  NumberOfComponents="3" format="ascii">2.4941343927176707e-07 4.5843464634355750e-08 0.0000000000000000e+00  -4.4411670172339895e-06 -3.5415794349718779e-07 0.0000000000000000e+00  -6.6248209687765856e-07 9.2766104091277966e-09 0.0000000000000000e+00  -7.4977220272926749e-07 2.6890417497101892e-09 0.0000000000000000e+00  -5.0910985146410985e-08 3.0156672442915945e-07 0.0000000000000000e+00  1.2275384100662133e-07 -7.3303816091889258e-08 0.0000000000000000e+00  1.2708849181529612e-07 1.6298204085244603e-07 0.0000000000000000e+00  -9.1315662906772865e-07 -9.8416300793131426e-08 0.0000000000000000e+00  -8.4559342231316085e-07 -1.3508577355457832e-07 0.0000000000000000e+00  1.2511657615850720e-07 -4.6656449495604790e-07 0.0000000000000000e+00  -9.4187963546287710e-07 -5.2488254072302238e-07 0.0000000000000000e+00  -1.0698722608294755e-06 -2.5161210536632049e-07 0.0000000000000000e+00  4.1265282043251095e-07 -5.9778191873792623e-08 0.0000000000000000e+00  -3.6243254614625969e-07 -5.2953312704390306e-07 0.0000000000000000e+00  -4.1085983783955572e-07 -1.3153850851821435e-07 0.0000000000000000e+00  -9.3345643032876362e-07 -2.0375109665626881e-07 0.0000000000000000e+00  2.3603438580640875e-06 4.3328513195823239e-07 0.0000000000000000e+00  3.4757899017590788e-01 9.6690379310399949e-02 0.0000000000000000e+00  1.6981912587263701e-06 -1.7145093624985793e-08 0.0000000000000000e+00  -1.0849751730545036e-06 4.0400327430507621e-07 0.0000000000000000e+00  -1.2696773991092086e-06 -4.3608715537197636e-07 0.0000000000000000e+00  -8.5562511816497922e-08 -6.3469629526234658e-07 0.0000000000000000e+00  3.7926191678929700e-07 1.6171946549974463e-08 0.0000000000000000e+00  -5.2309285441329367e-07 -1.7656995862768716e-06 0.0000000000000000e+00  -3.1248217567324826e-06 -1.5488468510087474e-06 0.0000000000000000e+00  -4.5108734751490506e-06 -4.0919119159199536e-07 0.0000000000000000e+00  -4.4540652550187636e-06 -1.4004973396235097e-07 0.0000000000000000e+00  -3.2027000779767964e-07 1.0112995255806098e-07 0.0000000000000000e+00  -4.2849166174603749e-07 1.1346843092398051e-07 0.0000000000000000e+00  1.6583343258617653e-01 -4.3449222944521027e-07 0.0000000000000000e+00  -8.6590772464988942e-07 -2.2503983970062572e-08 0.0000000000000000e+00  3.0833717821207661e-06 1.3578187108662897e-07 0.0000000000000000e+00  -5.4924244832459997e-07 -8.2859070269648773e-08 0.0000000000000000e+00  4.2319724387937736e-07 4.4438123220065513e-08 0.0000000000000000e+00  -1.4461179363053094e-07 -5.3375982894316300e-08 0.0000000000000000e+00  -1.0267248472228667e-06 2.6117686563021149e-09 0.0000000000000000e+00  -1.5209937452080514e-06 6.4284979397537456e-08 0.0000000000000000e+00  -2.5965975289714602e-06 -4.7930617028626002e-07 0.0000000000000000e+00  -8.7862347325742647e-06 -1.1487808362860170e-06 0.0000000000000000e+00  -4.7265267794646621e-07 -2.6653923565437205e-08 0.0000000000000000e+00  -1.9673201048303022e-06 2.1152316961645582e-07 0.0000000000000000e+00  1.0544904201780108e-06 -3.4261943156064272e-07 0.0000000000000000e+00  -4.3880111126315010e-07 -3.4442274705750253e-08 0.0000000000000000e+00  -3.4168064900974172e-07 -2.5579014974171833e-08 0.0000000000000000e+00  -2.4024476068764516e-07 -2.6221574750397937e-08 0.0000000000000000e+00  2.7536633440878333e-01 -4.6696826512634217e-02 0.0000000000000000e+00  2.3591659828049008e-01 2.5434587833311723e-02 0.0000000000000000e+00  1.5113504588450732e-01 -1.3311303774753922e-02 0.0000000000000000e+00  2.6439603165919429e-01 -4.0984656048003977e-02 0.0000000000000000e+00  2.3399351426148304e-01 -7.1363691319742612e-04 0.0000000000000000e+00  2.3362425743935175e-01 4.0601672501628191e-04 0.0000000000000000e+00  2.7126680360577781e-07 4.7721754188824408e-09 0.0000000000000000e+00  9.5852514531226337e-08 3.5360929442890901e-09 0.0000000000000000e+00  -4.4499699217992750e-07 7.8127972300863639e-09 0.0000000000000000e+00  1.8473268751430783e-01 -4.1595681870780054e-04 0.0000000000000000e+00  -1.4244070680403269e-06 -1.7351196965136052e-07 0.0000000000000000e+00  2.1911625966303749e-01 -5.8422898357432571e-02 0.0000000000000000e+00  -2.5797635114735538e-06 4.0619962194718938e-07 0.0000000000000000e+00  -6.5301217743416374e-07 -1.0819787938273132e-07 0.0000000000000000e+00  6.6933924965143722e-07 2.6253653763504559e-07 0.0000000000000000e+00  -2.7286569204029915e-07 -1.0992294286212189e-08 0.0000000000000000e+00  -3.4947227631343847e-07 -8.6489110795664611e-08 0.0000000000000000e+00  -8.5197638848891309e-07 -6.9070637083644282e-08 0.0000000000000000e+00  -3.7877712794232851e-07 -5.9593455340331088e-08 0.0000000000000000e+00  -2.4068333392437129e-06 5.6331498152606932e-08 0.0000000000000000e+00  -2.8351943284937440e-07 2.5113724197387178e-08 0.0000000000000000e+00  9.8621026729510972e-07 -1.5883620938100143e-07 0.0000000000000000e+00  1.1494149367109226e-01 -1.7992504332500041e-03 0.0000000000000000e+00  -1.8072167080371239e-07 -7.8258148515329848e-08 0.0000000000000000e+00  2.5336524879159744e-01 7.3565827889122649e-03 0.0000000000000000e+00  2.6472321202966231e-01 -3.7323692578244347e-02 0.0000000000000000e+00  1.0619367131592856e-01 5.0403075500602681e-03 0.0000000000000000e+00  3.0484168864179151e-01 1.0643020383133543e-01 0.0000000000000000e+00  1.7614774254877733e-01 2.3710726068448672e-02 0.0000000000000000e+00  3.4617169792356151e-01 -3.7099193658427690e-02 0.0000000000000000e+00  2.7521544178813384e-01 -5.0561720687527803e-02 0.0000000000000000e+00  6.6025847686981984e-02 4.4663746490953019e-02 0.0000000000000000e+00  2.0900439303711468e-01 5.5678922497171034e-03 0.0000000000000000e+00  2.0617174745558772e-01 -9.3423402139378761e-04 0.0000000000000000e+00  1.7969359704767385e-01 7.4815823145712715e-03 0.0000000000000000e+00  7.5234906099897775e-02 4.3522730040343139e-08 0.0000000000000000e+00  2.7319253695588347e-01 1.6533380249006635e-08 0.0000000000000000e+00  2.2331904793702637e-01 -1.0793448545141791e-03 0.0000000000000000e+00  2.4046855173495207e-01 7.2421802238671160e-02 0.0000000000000000e+00  1.5986332262358216e-01 -1.4719123147888003e-04 0.0000000000000000e+00  1.6177779742491344e-01 -2.2696482261165898e-02 0.0000000000000000e+00  1.4784344243188310e-01 -7.7890161843758860e-04 0.0000000000000000e+00  3.2436676645325113e-01 -2.3578822202121687e-02 0.0000000000000000e+00  1.8005707370603311e-01 6.1915524658461018e-04 0.0000000000000000e+00  2.0488035896363124e-01 1.4247454827860564e-02 0.0000000000000000e+00  9.0311379020687893e-02 -1.1787084084341084e-02 0.0000000000000000e+00  3.9228987753992789e-01 -3.7535155230082232e-02 0.0000000000000000e+00  6.0693285107926716e-02 6.0649560690852660e-03 0.0000000000000000e+00  1.8341669747846515e-01 -4.1014034197112289e-04 0.0000000000000000e+00  2.8883556959899848e-01 -3.3041167396737778e-02 0.0000000000000000e+00  2.0733643747277833e-01 -2.7851900670673498e-02 0.0000000000000000e+00  1.1253222017200230e-01 -3.1842991868851346e-02 0.0000000000000000e+00  3.2819981028317846e-02 6.5388110348622193e-03 0.0000000000000000e+00  4.2766276971917072e-01 -3.5402233471509462e-02 0.0000000000000000e+00  -2.0679966597864710e-07 -3.8930151588874957e-08 0.0000000000000000e+00  2.3184472339722584e-01 8.1051406443483996e-03 0.0000000000000000e+00  -9.6869828850557096e-07 9.2007017409670115e-09 0.0000000000000000e+00  1.7821737123472270e-01 2.0152599921230085e-02 0.0000000000000000e+00  2.7589337740341380e-01 -3.2701003366567033e-02 0.0000000000000000e+00  2.9275663618134234e-01 -6.8426961121261135e-02 0.0000000000000000e+00  1.2570511379790153e-01 7.1231335126985082e-02 0.0000000000000000e+00  2.3115146101851261e-01 1.4774938135017962e-02 0.0000000000000000e+00  2.0877530412468884e-01 2.4432779156742197e-02 0.0000000000000000e+00  1.4760011666463677e-01 7.4008041267929800e-02 0.0000000000000000e+00  4.5684962798463774e-01 -1.2987318461678801e-02 0.0000000000000000e+00  7.3964302635531456e-02 1.8234398785011714e-02 0.0000000000000000e+00  -2.0099691156187852e-07 -1.1670938054446360e-07 0.0000000000000000e+00  1.3978903238116741e-01 -4.1954642062302244e-04 0.0000000000000000e+00  -1.6187014734699938e-06 9.5451880922048327e-09 0.0000000000000000e+00  -1.2957866055277017e-06 8.3675674538858872e-09 0.0000000000000000e+00  -1.8122649119507618e-07 -8.3717555064402929e-08 0.0000000000000000e+00  2.4727323906780377e-01 -2.9551660525406588e-03 0.0000000000000000e+00  -1.8916500372005325e-06 -1.4077914443357113e-08 0.0000000000000000e+00  4.0378196658572379e-01 4.2378520498994647e-02 0.0000000000000000e+00  3.7422463230310649e-01 7.7589705426503452e-02 0.0000000000000000e+00  1.5344014012711352e-01 5.3859916418929812e-03 0.0000000000000000e+00  3.4356616738239154e-01 1.3163769894373891e-02 0.0000000000000000e+00  -1.3199744997268868e-06 -1.5041906799689859e-07 0.0000000000000000e+00  -8.5332531866459694e-08 -1.0323660393967261e-08 0.0000000000000000e+00  -5.3624925651733840e-07 -4.3814539432456146e-08 0.0000000000000000e+00  1.5509528481506038e-01 -5.2185154579775415e-04 0.0000000000000000e+00  9.8321517335811154e-02 -2.1709881213536077e-03 0.0000000000000000e+00  -2.8282293997248055e-07 -9.6756808223598516e-08 0.0000000000000000e+00  1.4521877405977912e-01 -2.3542955757890602e-02 0.0000000000000000e+00  1.5529476128952413e-01 1.4928517199212327e-01 0.0000000000000000e+00  3.9758392546475130e-01 -3.4400386256718221e-02 0.0000000000000000e+00  1.9079073908643110e-06 -8.3786427949376160e-08 0.0000000000000000e+00  1.1653302643588896e-01 4.6959515718447330e-02 0.0000000000000000e+00  2.5330344326469523e-01 -6.6186234890477896e-02 0.0000000000000000e+00  7.2692015229210913e-02 -2.3428022003450514e-02 0.0000000000000000e+00  1.6366593412271168e-06 -4.0009194254767364e-07 0.0000000000000000e+00  3.8032117079269005e-02 5.3752902039923903e-03 0.0000000000000000e+00  2.4732239861375591e-01 2.5058958346204693e-02 0.0000000000000000e+00  2.3400269272806981e-01 -2.7582663744099560e-02 0.0000000000000000e+00  2.3170320190390603e-01 -4.6695441119415940e-02 0.0000000000000000e+00  1.7864671240834326e-01 6.1968779593847591e-03 0.0000000000000000e+00  1.3086541454901537e-01 -7.5997194419297597e-03 0.0000000000000000e+00  2.3885615730609108e-01 2.5089180872240876e-02 0.0000000000000000e+00  6.7687986634674194e-02 1.7307192798743379e-02 0.0000000000000000e+00  1.1905215726407371e-01 -4.9482349054625662e-03 0.0000000000000000e+00  2.3120304820094181e-02 1.1016247830818586e-02 0.0000000000000000e+00  2.1177572001863260e-01 7.7184195169594134e-03 0.0000000000000000e+00  3.5719041926540428e-02 1.5577874396439324e-02 0.0000000000000000e+00  1.0151834992470157e-01 -2.0200298848343623e-02 0.0000000000000000e+00  -9.3893426094013288e-07 -1.1295806803039937e-07 0.0000000000000000e+00  -1.6746172437199382e-06 3.6751948191645245e-07 0.0000000000000000e+00  -6.1294414887302124e-07 3.8779742336701693e-07 0.0000000000000000e+00  3.4661612689890170e-01 -3.8286429711950565e-02 0.0000000000000000e+00  7.8052210779151546e-02 3.1256594227154572e-02 0.0000000000000000e+00  -2.2444258004493324e-06 -1.0606412872781419e-07 0.0000000000000000e+00  6.8491436136282858e-07 2.1454279609561696e-07 0.0000000000000000e+00  9.6115340019420306e-02 8.9084126349868332e-03 0.0000000000000000e+00  2.2619149963675675e-01 1.5026996552990101e-02 0.0000000000000000e+00  -3.8176139360782229e-07 -7.5833665646499053e-08 0.0000000000000000e+00  -1.1200681659279575e-06 4.3428648988724002e-08 0.0000000000000000e+00  -4.1682245728546563e-07 1.2603981144603377e-07 0.0000000000000000e+00  -6.2387924119838099e-07 -8.1662924694265708e-08 0.0000000000000000e+00  -1.2229788563371468e-08 6.1135070687859659e-09 0.0000000000000000e+00  3.4030179666012337e-07 -3.5525291917611364e-08 0.0000000000000000e+00  -2.2319908129913717e-06 -2.6039840930011206e-07 0.0000000000000000e+00  3.1773712904068968e-08 6.2017151341457176e-08 0.0000000000000000e+00  1.0318735221567053e-07 9.2549244341613515e-09 0.0000000000000000e+00  -1.8455897161459682e-07 9.8447951157634383e-08 0.0000000000000000e+00  3.7973353027300117e-07 -1.1533735819353407e-08 0.0000000000000000e+00  -8.4790840648111034e-07 -2.9046386105812795e-09 0.0000000000000000e+00  -2.6641353869886998e-07 -5.9671286117115594e-10 0.0000000000000000e+00  4.5249042212174170e-02 5.3335728526404209e-03 0.0000000000000000e+00  1.3077591319407897e-01 -1.2119455955427497e-02 0.0000000000000000e+00  2.1785833946467598e-01 -1.3178697823657564e-02 0.0000000000000000e+00  1.0398511707944171e-01 1.1006550188492999e-02 0.0000000000000000e+00  2.9146667247440888e-01 7.5778631612437267e-02 0.0000000000000000e+00  3.3735511294942744e-01 5.3506756894214920e-02 0.0000000000000000e+00  3.1540541700695940e-01 2.6289319295568030e-02 0.0000000000000000e+00  1.4285839621836952e-01 -3.9830134764771535e-04 0.0000000000000000e+00  2.4017563416140575e-01 2.1846445965458157e-02 0.0000000000000000e+00  3.1512771820213653e-01 -5.9703819498610172e-02 0.0000000000000000e+00  9.8734931493494313e-02 -9.2971140509225218e-03 0.0000000000000000e+00  2.3293255411316741e-01 -1.0757145813918912e-03 0.0000000000000000e+00  2.3370571608210644e-01 -1.0525607979350493e-03 0.0000000000000000e+00  2.1953287601754221e-01 -3.6150182561595572e-04 0.0000000000000000e+00  2.2984307583765573e-01 3.2279051616084537e-03 0.0000000000000000e+00  1.2678085162761688e-01 1.5704847454792639e-03 0.0000000000000000e+00  1.3423214419120774e-01 -4.3482257109136535e-04 0.0000000000000000e+00  1.9875017591768884e-01 1.9043114306008427e-01 0.0000000000000000e+00  3.8907980084324480e-02 4.5111088947837774e-02 0.0000000000000000e+00  1.5106141821778479e-01 -1.2175223948199079e-02 0.0000000000000000e+00  2.1975123122539844e-01 -4.9016414171671255e-03 0.0000000000000000e+00  2.0872751085988889e-01 -5.5173795012019950e-03 0.0000000000000000e+00  2.1949521229959307e-01 3.0006238395149952e-02 0.0000000000000000e+00  2.9940087282838151e-01 -7.0021828607368691e-02 0.0000000000000000e+00  2.1819355789508038e-01 -7.6946718898466453e-04 0.0000000000000000e+00  8.7167310682303878e-02 -5.5087498863015108e-03 0.0000000000000000e+00  2.6783371643055148e-01 -2.9346336682575941e-02 0.0000000000000000e+00  3.2478482113917095e-01 -4.3815806424064567e-02 0.0000000000000000e+00  1.2262636231872567e-01 6.2501362871304061e-03 0.0000000000000000e+00  2.1293194892225328e-01 1.8595534658442343e-02 0.0000000000000000e+00  1.2945873191818158e-01 1.3894789693987527e-03 0.0000000000000000e+00  1.6271848783240198e-01 7.6181756698464637e-02 0.0000000000000000e+00  2.4650809135060803e-01 1.3035132109035275e-01 0.0000000000000000e+00  2.1994260069611371e-01 3.1075579001477806e-02 0.0000000000000000e+00  1.7110618023564786e-01 -1.0604947214167510e-02 0.0000000000000000e+00  2.6108999942521094e-01 -3.1010831563093443e-02 0.0000000000000000e+00  2.8568406354443210e-01 -4.1821620893844322e-02 0.0000000000000000e+00  3.9246481618893048e-01 1.7998512362155099e-02 0.0000000000000000e+00  2.4954606244864996e-01 -4.5357991170290018e-02 0.0000000000000000e+00  2.3518243402462627e-01 -4.3438049194973488e-02 0.0000000000000000e+00  3.4062766322992477e-01 1.8371070162156092e-01 0.0000000000000000e+00  2.7751802478914039e-01 3.6381161761097860e-02 0.0000000000000000e+00  2.3159731093299749e-01 7.2361528977294240e-02 0.0000000000000000e+00  2.3506169195785392e-01 1.6217968274779605e-02 0.0000000000000000e+00  2.0080834930334054e-01 -7.3580004751786084e-04 0.0000000000000000e+00  2.2214448443282783e-01 -6.2718656430190106e-04 0.0000000000000000e+00  2.9884379411427364e-01 -3.7999512154889066e-02 0.0000000000000000e+00  1.2565945286117119e-01 2.5520573233894478e-02 0.0000000000000000e+00  6.8260757382153869e-02 1.5448121754621221e-03 0.0000000000000000e+00  2.1002438223786729e-01 2.1542771898119244e-02 0.0000000000000000e+00  1.5829087178535994e-01 4.9249789532918122e-02 0.0000000000000000e+00  2.4880722612627718e-01 -5.0908495387803523e-02 0.0000000000000000e+00  1.2370010673947762e-01 -2.1426117998771886e-02 0.0000000000000000e+00  4.5153286043182535e-02 2.2269536612985002e-03 0.0000000000000000e+00  4.6292784471212539e-01 4.3257103737120557e-02 0.0000000000000000e+00  1.0291520424758566e-01 1.2362354898007427e-03 0.0000000000000000e+00  3.4877998054759002e-01 -2.6653416915519243e-02 0.0000000000000000e+00  2.0468247787117722e-01 -7.4135170547185260e-04 0.0000000000000000e+00  2.3949276252918109e-01 -1.2016541933797512e-02 0.0000000000000000e+00  1.6633202365091757e-01 1.2977211833154600e-02 0.0000000000000000e+00  2.2766277990190134e-01 -1.7884359185365357e-02 0.0000000000000000e+00  1.4700742672387621e-01 -3.3502771808805391e-02 0.0000000000000000e+00  2.7560685184002679e-02 1.7012991201462479e-03 0.0000000000000000e+00  1.1298892311256802e-01 3.9481631454819270e-03 0.0000000000000000e+00  3.8793855020584377e-03 -9.8160330843481919e-05 0.0000000000000000e+00  8.6829344919458026e-02 5.5985913380670483e-03 0.0000000000000000e+00  6.2803658771187307e-02 1.7640617717614344e-02 0.0000000000000000e+00  1.9815320580118681e-01 1.4626695962500871e-03 0.0000000000000000e+00  1.0597298019356290e-01 2.4594652042252618e-04 0.0000000000000000e+00  4.0224780490771961e-01 -3.9448815773902086e-02 0.0000000000000000e+00  2.3686069913144578e-01 2.1944471912533226e-02 0.0000000000000000e+00  2.0666240413251319e-01 4.5556418240139240e-03 0.0000000000000000e+00  3.5785433806676731e-02 8.1705889837828847e-08 0.0000000000000000e+00  7.7018733466951914e-02 4.3445636476927051e-03 0.0000000000000000e+00  1.5902894342984392e-01 4.2063621720164604e-02 0.0000000000000000e+00  2.2722331471124674e-01 2.6774742278734623e-03 0.0000000000000000e+00  2.3314585020509576e-01 1.5228684627715042e-02 0.0000000000000000e+00  1.6756686289928782e-01 -6.5877550230926691e-03 0.0000000000000000e+00  3.2644836680275008e-01 -2.6336740049802809e-02 0.0000000000000000e+00  3.8094146330877676e-01 3.5634361725890476e-02 0.0000000000000000e+00  1.3921716104706175e-01 -7.6336747668099697e-03 0.0000000000000000e+00  8.3748057848372415e-02 5.1819733022139113e-03 0.0000000000000000e+00  1.1139025844029370e-01 -1.6515840211767715e-04 0.0000000000000000e+00  -7.9416683619169381e-03 1.5656321079251134e-02 0.0000000000000000e+00  3.3356377865938058e-01 3.1175623755991692e-08 0.0000000000000000e+00  6.8431467372421326e-02 -5.5839720834748446e-03 0.0000000000000000e+00  3.9184563595063426e-01 3.6554951475093675e-03 0.0000000000000000e+00  1.1701029935526676e-01 -1.2844717039886032e-04 0.0000000000000000e+00  3.2315567705131992e-01 -3.3921261820232286e-02 0.0000000000000000e+00  1.1852650693015951e-01 -3.1665856875427160e-08 0.0000000000000000e+00  2.2295316357820288e-01 -6.2736249016149398e-04 0.0000000000000000e+00  1.1015243205390460e-01 -1.4494690660805395e-04 0.0000000000000000e+00  2.1733315435947387e-01 -2.9683750266218977e-08 0.0000000000000000e+00  1.0902608119195142e-01 2.5011238747661129e-03 0.0000000000000000e+00  1.7494765599435980e-01 -1.7836624410352612e-02 0.0000000000000000e+00  2.2951518207985855e-01 -9.3473101421886519e-04 0.0000000000000000e+00  1.6002409636762572e-02 -6.3083873210764670e-03 0.0000000000000000e+00  3.3271152797620281e-02 -9.9162959338981033e-03 0.0000000000000000e+00  1.5732265630594844e-01 -4.7053231159240198e-02 0.0000000000000000e+00  9.4138770253889142e-03 2.9028411881673443e-03 0.0000000000000000e+00  3.1375991716521234e-01 -1.6303036095320404e-02 0.0000000000000000e+00  2.8742205972939777e-01 -1.7028224808407873e-02 0.0000000000000000e+00  4.0933814854210915e-01 -4.5351255644872607e-02 0.0000000000000000e+00  1.2640600974582006e-01 -1.9599447101599835e-04 0.0000000000000000e+00  2.7515699070417704e-01 -3.3819549654097517e-02 0.0000000000000000e+00  2.8173788673783590e-01 -1.6741363477523842e-02 0.0000000000000000e+00  1.9059678427329210e-01 -7.2557964362927744e-04 0.0000000000000000e+00  1.8677435616594898e-01 -2.6360742301157421e-02 0.0000000000000000e+00  8.2132164852022599e-02 -1.5187450267049714e-04 0.0000000000000000e+00  1.8807200922914336e-01 -7.5956138126199784e-03 0.0000000000000000e+00