<?xml version="1.0"?>
<VTKFile type="UnstructuredGrid"  version="0.1"  >
<UnstructuredGrid>
<Piece  NumberOfPoints="1404" NumberOfCells="2604">
<Points>
<DataArray  type="Float64"  NumberOfComponents="3"  format="ascii">0 0.41 0  0 0 0  2.2 0 0  2.2 0.41 0  0.2353553390593274 0.2353553390593274 0  0.25 0.2 0  0.2353553390593274 0.1646446609406726 0  0.2 0.15 0  0.1646446609406726 0.1646446609406726 0  0.15 0.2 0  0.1646446609406726 0.2353553390593274 0  0.2 0.25 0  0.6923879532511287 0.188268343236509 0  0.7 0.15 0  0.6923879532511287 0.1117316567634909 0  0.6707106781186547 0.07928932188134523 0  0.6382683432365089 0.05761204674887133 0  0.6 0.04999999999999999 0  0.5617316567634909 0.05761204674887134 0  0.5292893218813453 0.07928932188134524 0  0.5076120467488713 0.111731656763491 0  0.5 0.15 0  0.5076120467488713 0.188268343236509 0  0.5292893218813453 0.2207106781186547 0  0.561731656763491 0.2423879532511287 0  0.6 0.25 0  0.6382683432365089 0.2423879532511287 0  0.6707106781186547 0.2207106781186547 0  1.1 0 0  0 0.205 0  1.1 0.41 0  0.55 0 0  0.55 0.41 0  0.275 0 0  0.8250000000000001 0 0  0.275 0.41 0  0.8250000000000001 0.41 0  0.6875 0 0  0.61875 0 0  1.65 0.41 0  1.65 0 0  1.375 0 0  1.375 0.41 0  1.925 0 0  1.925 0.41 0  1.5125 0.205 0  1.7875 0.205 0  0.9625000000000001 0.205 0  1.2375 0.205 0  2.2 0.205 0  1.99375 0.2152743902439024 0  0.4125 0.41 0  2.0625 0 0  2.0625 0.41 0  2.2 0.3075 0  1.7875 0.41 0  1.375 0.1486128048780488 0  1.5125 0 0  1.7875 0 0  1.5125 0.41 0  0.9625000000000001 0.41 0  0.4125 0 0  0.1375 0 0  0.1375 0.41 0  0.6875 0.41 0  0.9625000000000001 0 0  1.2375 0 0  1.1 0.1486128048780488 0  1.2375 0.41 0  1.65 0.1486128048780487 0  0.823495464168302 0.2603780552348366 0  0.3738707794507017 0.2720196349488618 0  0.3662291281331582 0.1311456406657909 0  1.676715909090909 0.2793064024390244 0  1.126715909090909 0.2793064024390244 0  1.348284090909091 0.2793064024390244 0  0.8287581077665108 0.1302150898054257 0  1.894702181800738 0.1282910975492754 0  2.092797818199262 0.1282910975492754 0  1.85625 0.3075 0  0 0.3075 0  0 0.1025 0  2.099172119769978 0.25625 0  0.4752414543992246 0.3180372603390748 0  1.99375 0.08395950269330846 0  1.459960956013612 0.3075 0  1.569025960719943 0.2986889805672169 0  1.03125 0.3278689922742084 0  1.959375 0.3126371951219512 0  1.749222215368287 0.1025 0  1.275777784631713 0.1025 0  0.9228016959331474 0.3075 0  1.000777784631713 0.1025 0  2.2 0.1025 0  1.225938124459196 0.3075 0  1.550777784631713 0.1025 0  1.44375 0.07430640243902442 0  1.16875 0.07430640243902439 0  0.7562500000000001 0.3358727844323386 0  0.89375 0 0  1.899250267340833 0.2229966846119207 0  0.61875 0.41 0  1.766482954545455 0.2934032012195123 0  1.046078563095834 0.2389031808701145 0  1.421109702350723 0.2261157654379721 0  0.07567171807980319 0.25625 0  0.2511897295290552 0.3235829392832554 0  0.07655002503762308 0.1488653460959645 0  0.1377245246847496 0.3206030474919778 0  0.6694099692696568 0.3242771941727899 0  0.9168971191497528 0.1295727156104653 0  0.7562500000000001 0 0  2.118919042110979 0.3422084711244843 0  2.13125 0 0  0.06875000000000001 0 0  1.30625 0.41 0  1.597888256393107 0.2173787389261347 0  0.34375 0.41 0  0.2493272016354703 0.08091360081773515 0  0.5588896233436766 0.3264056208677571 0  1.829299675393195 0.07400700849299596 0  0.1334079128307869 0.08523463035786674 0  1.71875 0.41 0  0.06875000000000001 0.41 0  1.16875 0.41 0  2.038220665644273 0.332420740103091 0  0.8810647413215221 0.2027360103977071 0  0.34375 0 0  0.7453891198966415 0.2471459041008237 0  0.42112093004955 0.1988123139090554 0  0.8314023090855964 0.3351170841770613 0  0.89375 0.41 0  0.7906250000000001 0.06615386481594063 0  1.452769549894695 0.1548122580621249 0  1.369219062229598 0.07430640243902442 0  1.30625 0 0  1.07420695807087 0.07430640243902439 0  1.720943423819132 0.1714577452753128 0  1.157188124459196 0.205 0  1.304056576180868 0.1714577452753128 0  1.67579304192913 0.07430640243902437 0  1.209670467133757 0.136210026696477 0  0.4312800784902823 0.08036147352247747 0  0.8723959680194693 0.07066860609690805 0  1.025335513626278 0.1700681449722324 0  0.7945632284247136 0.1940204203251442 0  0.378125 0.3452261501101892 0  0.3307109909790086 0.2037165635083759 0  0.3009701032039409 0.2702970083403109 0  0.20625 0.41 0  1.58125 0 0  0.4812500000000001 0 0  0.9838963872396855 0.2722244191167347 0  0.06772484939107212 0.3260067317374387 0  0.20625 0 0  1.58125 0.41 0  1.631724228912893 0.3381867502687533 0  1.825608881788174 0.14499488549201 0  1.85625 0 0  1.44375 0 0  1.44375 0.41 0  1.85625 0.41 0  2.13125 0.41 0  0.7562500000000001 0.41 0  0.4812500000000001 0.41 0  1.16875 0 0  1.03125 0.41 0  1.03125 0 0  1.71875 0 0  1.99375 0 0  1.99375 0.41 0  0.9408708167433545 0.0651989315768642 0  1.340625 0.3489494290853124 0  1.134375 0.3489494290853123 0  1.700180620188976 0.3438659752031281 0  0.29668452290037 0.1318471691375986 0  0.3175441051360096 0.06496934809856265 0  0.06509151636162461 0.08140814015999148 0  2.135782184673599 0.07126652247502523 0  1.668441847249787 0.2129203728327609 0  1.295782514339747 0.2378437748815763 0  1.409375 0.3520314716057996 0  2.129248544730567 0.1906135162504124 0  2.060771381434487 0.1989445750470348 0  2.013252586573865 0.1496169464686054 0  1.942766402200229 0.1734448904596831 0  1.895522487186454 0.06076163953489683 0  2.069553871656643 0.06605731020975725 0  0.4670911801404742 0.2498408582391372 0  0.7622743084658112 0.1264100838268133 0  1.274680914880868 0.3520219391081363 0  0.3148669572599245 0.3331753056385887 0  1.614713220494657 0.09473434380863296 0  1.72990325744076 0.2380068107952482 0  1.356580098625191 0.2120393231351682 0  2.034370752044885 0.2668681600792073 0  1.51768709249349 0.3426260931494756 0  1.561883724969884 0.1650446847858835 0  1.197344062229598 0.2523725417393646 0  1.804085235518364 0.3468178408964637 0  1.817887819205233 0.2589243285818559 0  1.905897727272727 0.3485060975609756 0  0.7296439733931823 0.06337466644369745 0  0.4250935971865949 0.1394919578475796 0  0.3773030136511669 0.05130372097998036 0  1.192836486056382 0.3562350748565544 0  1.1029124365364 0.226143510831178 0  1.28257088594801 0.2944411014911587 0  0.1905185804731426 0.06029880676029167 0  1.474860187679412 0.2504218616229368 0  1.406767003493824 0.2829282258560709 0  0.5209826960981064 0.2830664557824064 0  0.5131119502780163 0.3617405848213254 0  0.1948220106098172 0.3081993407644811 0  1.845656689180403 0.1998310418452388 0  2.144958525570388 0.2909790873294231 0  2.2 0.15375 0  0.8833025251326762 0.2625402923007629 0  0.171875 0.3653875762360952 0  1.57794966442982 0.3540357145964566 0  0.446875 0.366068291212731 0  0.4272051715206439 0.2891929346190664 0  1.508991196088596 0.1421783375065625 0  1.50436820029908 0.06143401634903343 0  1.223857000523521 0.08235548624535324 0  0.6137904613287555 0.3066826366281556 0  1.153316824384777 0.1289850171317838 0  0.9751573703656133 0.327632618473408 0  2.148922302309752 0.1258841779285271 0  0.9281250000000001 0.3643758685795699 0  1.621993280276081 0.2841214267927899 0  1.550118654119087 0.2461998729100966 0  1.327182649291491 0.1216967252533594 0  0.9939955742738924 0.04663549843168518 0  1.753125 0.04556020050186112 0  1.271875 0.04556020050186116 0  0.9734326767716519 0.1506854560854393 0  0.103125 0.3675775577080512 0  1.94956388244759 0.1180512551534177 0  1.949997712993411 0.04965831614304109 0  0.717433898748555 0.295596016333797 0  1.771961817615021 0.1530278789497521 0  1.909246823951428 0.2812757146784527 0  0 0.35875 0  1.050632804931928 0.1226269704412814 0  0.05695108326502596 0.2024009637347154 0  1.948575539857022 0.2445328248721197 0  1.697271520964565 0.1233917627620729 0  1.065625 0.3689344961371042 0  1.085849084308977 0.3170853572226867 0  0.1015495998772944 0.04226029099983852 0  1.577403511714593 0.05463601888079143 0  1.751571320346033 0.3651102912045228 0  2.2 0.35875 0  0.7441773632462837 0.1786786606458751 0  0 0.05125 0  1.466879772203159 0.3611261772912453 0  0.6282230348858767 0.3577675483994025 0  1.990280163552011 0.3564754268533217 0  1.17471064520912 0.2990917256188288 0  0 0.25625 0  2.2 0.25625 0  2.2 0.05125 0  0 0.15375 0  1.853978576207987 0.35875 0  1.515638456102889 0.2882700110184686 0  2.150453692751374 0.2387066338105111 0  1.323782677156475 0.04897634338873398 0  1.409375 0.03715320121951221 0  1.406484531114799 0.1087852750766809 0  1.134375 0.03715320121951219 0  0.721875 0.3729363922161693 0  0.7941695928236929 0.3696489254637395 0  0.7934827162619036 0.3013409431456604 0  1.627401732573545 0.04552157221025036 0  0.9352049974617431 0.2507047965699472 0  0.8763260682738339 0.3611103317460093 0  2.045405893604797 0.1105340662939892 0  1.255408269734577 0.1577307500159216 0  2.028125 0.03707597992059326 0  1.003030137506755 0.3689344961371042 0  1.248258025468107 0.2565907092181813 0  1.203125 0.03661323374043041 0  0.4800125512335631 0.0549472816999725 0  2.072662025974815 0.2975086504196739 0  0.240625 0.3729825336867542 0  1.113252391110535 0.10238286244357 0  1.071052763974265 0.1885202618768825 0  0.8738809401657862 0.3106483608284829 0  0.6786819423003397 0.2677558482644021 0  1.887722846421017 0.1760882698830035 0  1.472640588990488 0.1118278026240017 0  0.5843750000000001 0.41 0  1.865937103925594 0.2604137786483804 0  1.463913572748262 0.2030442564990043 0  1.376426316059077 0.3186741374914345 0  0.1038643885363755 0.2162701735320032 0  0.1769473813227781 0.1070849728467114 0  0.458787839809176 0.171541653775316 0  0.240625 0 0  0.04179569703428024 0.2877217852556549 0  0.1258346557601885 0.2699740073054968 0  1.722140693354707 0.282908100935778 0  0.41206179117512 0.2448172567039922 0  0.3702471778075604 0.2265217604228704 0  0.3714881805374215 0.1786967818665642 0  1.77397096061971 0.2481483237422926 0  2.105123889160691 0.03743885948498647 0  1.001138337938679 0.229719337663998 0  1.051242910646791 0.2854826559431138 0  1.395420985247586 0.18
[...]
<PointData  Vectors="f_37"> 
<DataArray  type="Float64"  Name="f_37"  NumberOfComponents="3" format="ascii">2.4944297103684791e-07 4.7680342464871273e-08 0.0000000000000000e+00  -4.4619127295013024e-06 -3.4440332902086670e-07 0.0000000000000000e+00  -6.9416120026308772e-07 5.3300951720529920e-10 0.0000000000000000e+00  -9.2332922621635598e-07 -8.6327580537726115e-11 0.0000000000000000e+00  -3.0062236356822887e-07 4.3837710444616229e-07 0.0000000000000000e+00  6.9661249349017220e-08 -5.5185431848031939e-08 0.0000000000000000e+00  2.8465718471752432e-07 1.1399576214601861e-07 0.0000000000000000e+00  -8.8284670566744794e-07 -3.4646202668850373e-07 0.0000000000000000e+00  -1.2648172940155784e-06 -9.6304131714635410e-08 0.0000000000000000e+00  2.2442848090494398e-07 -2.2165948302147267e-07 0.0000000000000000e+00  -9.1251279962096144e-07 -6.0608318798758473e-07 0.0000000000000000e+00  -1.3082948343990780e-06 -3.1659245914087972e-07 0.0000000000000000e+00  7.7328305516758729e-07 1.2112105179213234e-07 0.0000000000000000e+00  -6.2993253945626285e-07 -1.2086600416077065e-06 0.0000000000000000e+00  -6.9595710473928170e-07 -7.3096948857352107e-07 0.0000000000000000e+00  -2.5714473444968753e-06 -3.5554517416682827e-07 0.0000000000000000e+00  1.2300100693170354e-06 1.0853780881645124e-06 0.0000000000000000e+00  3.3453599714370663e-01 9.3775926092273268e-02 0.0000000000000000e+00  4.5759034761988503e-06 2.5961532822155139e-06 0.0000000000000000e+00  3.9771654509663151e-06 -7.5217182862887183e-08 0.0000000000000000e+00  -1.8296479855425089e-06 -2.8827161644176793e-07 0.0000000000000000e+00  -3.8311490201276218e-07 1.8566800760482747e-07 0.0000000000000000e+00  4.5530365917196388e-07 -5.0106995748046443e-07 0.0000000000000000e+00  -2.1461058458959297e-07 -2.4658538838959543e-06 0.0000000000000000e+00  -2.8104675918591361e-06 -1.8441851760979531e-06 0.0000000000000000e+00  -4.2618922184482661e-06 -7.2099435449776814e-07 0.0000000000000000e+00  -4.2155019332129668e-06 -4.7012088678640012e-07 0.0000000000000000e+00  2.6014635027496331e-07 4.4612567014020402e-08 0.0000000000000000e+00  -3.8687266542571552e-06 6.6121798307050165e-07 0.0000000000000000e+00  1.6583342901879128e-01 -4.2695081395941567e-07 0.0000000000000000e+00  1.3469728741835440e-06 2.9293256543327319e-07 0.0000000000000000e+00  4.4300591581307772e-06 2.5781392676612259e-06 0.0000000000000000e+00  -5.2159189841052368e-07 1.6179078501814335e-07 0.0000000000000000e+00  5.0369681319652818e-07 8.2887188555470443e-08 0.0000000000000000e+00  1.0343422471422607e-06 -2.8797279251572328e-07 0.0000000000000000e+00  -7.4168162851686118e-07 1.3595132932396840e-07 0.0000000000000000e+00  -1.4603944030052302e-06 -7.8143017327909492e-08 0.0000000000000000e+00  -2.7329517655239150e-06 -5.3204473620129285e-07 0.0000000000000000e+00  -9.5066777469042631e-06 -4.1918783221682408e-07 0.0000000000000000e+00  -1.0335157595043093e-06 -3.3145186152020521e-09 0.0000000000000000e+00  -1.3213145335234937e-06 -4.8262910299349415e-09 0.0000000000000000e+00  -4.9387132919917272e-07 -1.7324153699336295e-08 0.0000000000000000e+00  -6.9159956248222049e-07 -3.0215061656950342e-08 0.0000000000000000e+00  -5.3284879387603692e-07 -2.1207111841792818e-10 0.0000000000000000e+00  -7.5348828517023743e-08 -3.5720657777127921e-10 0.0000000000000000e+00  2.1402431727275686e-01 1.3181357620303499e-03 0.0000000000000000e+00  2.1402361776085227e-01 1.4332862161192970e-04 0.0000000000000000e+00  2.4456748267679057e-01 -8.1625828568795467e-02 0.0000000000000000e+00  2.2663425380907651e-01 -9.4382373908348857e-03 0.0000000000000000e+00  2.1404578968446347e-01 -2.8325358260678068e-06 0.0000000000000000e+00  2.1392599346033403e-01 1.8338510492421846e-05 0.0000000000000000e+00  3.9234508349210385e-07 -4.8700458643050347e-08 0.0000000000000000e+00  1.5745652672671351e-07 6.2593597181919345e-10 0.0000000000000000e+00  -6.0310342988794002e-07 9.4377665412072615e-10 0.0000000000000000e+00  1.9069888061765328e-01 -4.1335999876616790e-06 0.0000000000000000e+00  -8.7975461136780968e-07 -1.2630418849595902e-09 0.0000000000000000e+00  2.1083963803735714e-01 1.4514058885017490e-03 0.0000000000000000e+00  -1.2914985001879603e-06 -1.1580781357440050e-08 0.0000000000000000e+00  -1.0769377412718758e-06 -1.4341803960835494e-09 0.0000000000000000e+00  -7.0035774788254707e-07 -1.1442594039400156e-08 0.0000000000000000e+00  2.6370143092924465e-07 9.2991842649439072e-08 0.0000000000000000e+00  -4.6558160231468916e-07 -1.2094968805382396e-07 0.0000000000000000e+00  -8.4052853152983148e-07 -8.5556705862235566e-08 0.0000000000000000e+00  -4.4134311455446081e-07 -1.3250364055534346e-07 0.0000000000000000e+00  -2.3086202151208377e-06 -9.0417860457190021e-08 0.0000000000000000e+00  2.1948333790781390e-06 -3.4108206759597054e-07 0.0000000000000000e+00  7.8501702193513268e-08 1.6649610031746462e-07 0.0000000000000000e+00  1.8627373734107616e-01 -8.5194463181824123e-02 0.0000000000000000e+00  -1.4329761808620471e-06 -1.7396833163929115e-07 0.0000000000000000e+00  2.1008593430959965e-01 4.2742341735234731e-04 0.0000000000000000e+00  2.9462688228675044e-01 -4.5289439285740619e-02 0.0000000000000000e+00  1.0107887642383624e-01 7.8922638683044341e-04 0.0000000000000000e+00  3.0953372396121415e-01 1.1176162835134354e-01 0.0000000000000000e+00  2.0496482966048829e-01 3.1001510853018405e-04 0.0000000000000000e+00  2.4725406478189760e-01 -2.3720992742633017e-02 0.0000000000000000e+00  2.0388829478233131e-01 3.7162953792101577e-03 0.0000000000000000e+00  5.2964774472378628e-02 6.5090384208173827e-02 0.0000000000000000e+00  2.0435530507236965e-01 3.9454717916572570e-05 0.0000000000000000e+00  2.0430271605320097e-01 1.0928777736508094e-05 0.0000000000000000e+00  1.9065236372253291e-01 3.6108335411621478e-05 0.0000000000000000e+00  7.5234904631151817e-02 -6.7501083918320661e-09 0.0000000000000000e+00  2.7319256243605122e-01 4.5700153498420740e-08 0.0000000000000000e+00  2.1076938584609234e-01 2.4727859776607045e-06 0.0000000000000000e+00  2.3469610097510141e-01 7.3129694004340315e-02 0.0000000000000000e+00  1.7405084632112541e-01 9.3752096375854918e-06 0.0000000000000000e+00  1.8901843939664381e-01 1.4744016019261155e-03 0.0000000000000000e+00  1.9573143175535146e-01 6.7301636984592030e-04 0.0000000000000000e+00  2.1761669133604375e-01 -3.7661651413791415e-02 0.0000000000000000e+00  1.8675183286165264e-01 7.1117599429615577e-06 0.0000000000000000e+00  1.9083029943691079e-01 1.1765951638326130e-04 0.0000000000000000e+00  1.9069562295862955e-01 -3.8304868203239023e-03 0.0000000000000000e+00  3.8394263158892811e-01 -7.9517128385273986e-02 0.0000000000000000e+00  5.2316512733720767e-02 -4.0169792762173244e-02 0.0000000000000000e+00  1.9066685600144606e-01 1.1187697295484686e-06 0.0000000000000000e+00  1.8584803633636432e-01 9.1027821646152071e-03 0.0000000000000000e+00  1.9148375388441691e-01 7.2828750007329298e-04 0.0000000000000000e+00  1.6477144069438260e-01 1.0724948167442946e-03 0.0000000000000000e+00  1.4223322868179233e-01 -2.0015643383416971e-02 0.0000000000000000e+00  4.3491742432852670e-01 -4.3069947973809038e-02 0.0000000000000000e+00  2.6568728176414482e-06 -6.4669719547997014e-07 0.0000000000000000e+00  2.1371588543257894e-01 4.5368318731992300e-05 0.0000000000000000e+00  -1.1378666049477707e-06 2.1183286191050776e-07 0.0000000000000000e+00  1.9913954948125909e-01 1.2707138019022336e-04 0.0000000000000000e+00  3.2881386820176650e-01 -1.0869491582801814e-01 0.0000000000000000e+00  2.1351119247142258e-01 2.1325184564177373e-03 0.0000000000000000e+00  1.2562902594130196e-01 7.1417630268886159e-02 0.0000000000000000e+00  2.3113543198478004e-01 1.4125324225250585e-02 0.0000000000000000e+00  2.0874152080897240e-01 2.4588336546678951e-02 0.0000000000000000e+00  1.4764215569465416e-01 7.3296085262236146e-02 0.0000000000000000e+00  4.6520568499705378e-01 -1.2341048671705754e-02 0.0000000000000000e+00  5.0175118316377873e-02 1.3522871299878451e-02 0.0000000000000000e+00  -1.0721465795179101e-08 -2.2974512788655969e-07 0.0000000000000000e+00  1.5352135014748131e-01 2.6411468364785748e-08 0.0000000000000000e+00  -1.7411961103491923e-06 -2.7078019812841940e-09 0.0000000000000000e+00  -1.3086915620156823e-06 7.3356717333609178e-09 0.0000000000000000e+00  -1.0481941256930326e-06 -4.8516672425739880e-08 0.0000000000000000e+00  2.1379151085538364e-01 7.3176699670670471e-04 0.0000000000000000e+00  -1.7074193724503038e-06 2.2558824534055564e-08 0.0000000000000000e+00  4.0362867405024661e-01 4.3696010578501504e-02 0.0000000000000000e+00  3.7891200108959638e-01 8.3628737751620885e-02 0.0000000000000000e+00  1.6221588763359351e-01 2.2756533512492699e-05 0.0000000000000000e+00  3.4352426717123391e-01 1.3377480151675647e-02 0.0000000000000000e+00  -1.0909833289234041e-06 -2.6167700884894797e-09 0.0000000000000000e+00  -1.7631602493613193e-07 -4.9196637867694417e-08 0.0000000000000000e+00  -5.9734770564148253e-07 -1.8377453787961823e-07 0.0000000000000000e+00  1.6667303331193273e-01 -3.2167641847680564e-06 0.0000000000000000e+00  1.5318617206087420e-01 -4.1174374878147060e-03 0.0000000000000000e+00  -3.2565218835823062e-07 -5.2532687505317861e-08 0.0000000000000000e+00  1.4762853141581933e-01 -2.1365695883127075e-02 0.0000000000000000e+00  1.6886874592254375e-01 1.5810651228117070e-01 0.0000000000000000e+00  3.9511930229861469e-01 -5.2073459629424751e-02 0.0000000000000000e+00  1.7447090846068459e-06 -1.5377032668114816e-07 0.0000000000000000e+00  8.9309206338768155e-02 5.1809389165646307e-02 0.0000000000000000e+00  2.1163235971774008e-01 1.6739932895979475e-03 0.0000000000000000e+00  1.6591855835702343e-01 1.1815209922172107e-03 0.0000000000000000e+00  2.8275748564556395e-07 1.8062021303694415e-08 0.0000000000000000e+00  8.2586500022188924e-02 -3.7932333302310300e-02 0.0000000000000000e+00  2.1287660210656492e-01 2.4807893705768751e-04 0.0000000000000000e+00  2.5304121580698996e-01 -4.6445163257897798e-02 0.0000000000000000e+00  2.1480954967730898e-01 -1.9404539583968070e-03 0.0000000000000000e+00  1.6280618686782383e-01 1.6580866877535655e-04 0.0000000000000000e+00  2.0192907317767994e-01 -2.4504323323678297e-02 0.0000000000000000e+00  2.3021315718763291e-01 2.6951698561595985e-02 0.0000000000000000e+00  2.9385380721419666e-02 2.2949619080858501e-02 0.0000000000000000e+00  1.9288241949523896e-01 -1.0057993026377558e-01 0.0000000000000000e+00  4.1240432305018802e-02 3.6003920348862822e-02 0.0000000000000000e+00  2.0926697761100913e-01 7.8822638341407899e-03 0.0000000000000000e+00  4.0283602833253475e-02 1.2208474580387551e-02 0.0000000000000000e+00  1.0165776181105424e-01 -2.3049628704042206e-02 0.0000000000000000e+00  -7.8015532372524400e-07 -9.4942916968091338e-08 0.0000000000000000e+00  -5.5193411060301178e-07 -7.1076826849559823e-09 0.0000000000000000e+00  3.7589232984082318e-09 2.4957996688930505e-07 0.0000000000000000e+00  3.7153277390498374e-01 -1.0547026268086530e-01 0.0000000000000000e+00  7.8081126773482959e-02 3.1537310420662171e-02 0.0000000000000000e+00  -2.1665861195006997e-06 -1.1156838732503044e-07 0.0000000000000000e+00  -7.6839422045278784e-07 -5.4162389118779434e-09 0.0000000000000000e+00  1.5875877442080744e-01 2.3838303098930303e-04 0.0000000000000000e+00  2.0912137835451330e-01 8.0373554857374047e-05 0.0000000000000000e+00  -7.5167321791287512e-07 -3.3117435424358646e-10 0.0000000000000000e+00  -7.8392811002289957e-07 -2.1506364601804297e-08 0.0000000000000000e+00  -1.0532076040083454e-06 -2.3497113033851286e-08 0.0000000000000000e+00  -1.6703368158200575e-07 2.8644992435604000e-11 0.0000000000000000e+00  -1.1708884995908249e-07 -2.5810211955587391e-10 0.0000000000000000e+00  4.9129208965441030e-07 -3.2181578070301103e-07 0.0000000000000000e+00  -1.9062579019489915e-06 -1.6199775313020677e-07 0.0000000000000000e+00  -2.5581320005036307e-06 5.6466848880929795e-07 0.0000000000000000e+00  1.6450110725528138e-06 4.6578698030372150e-07 0.0000000000000000e+00  -1.0138170108609908e-06 4.2896847359720584e-08 0.0000000000000000e+00  1.4485976280522181e-07 -1.7491982850857040e-09 0.0000000000000000e+00  -9.7916134004380646e-07 7.8916345823033662e-10 0.0000000000000000e+00  -3.3977114220066194e-07 -3.8301413176110738e-10 0.0000000000000000e+00  1.0484115723463970e-02 6.2344065112881206e-04 0.0000000000000000e+00  1.3741670489835150e-01 2.3898795991889612e-03 0.0000000000000000e+00  1.1991348446717573e-01 2.3473954950324833e-03 0.0000000000000000e+00  1.5085235422565976e-01 1.0883887078806880e-04 0.0000000000000000e+00  2.9438843595399794e-01 7.7834116422785884e-02 0.0000000000000000e+00  3.3446907748152288e-01 5.5494637167263113e-02 0.0000000000000000e+00  3.1536943394055633e-01 2.6419366778153160e-02 0.0000000000000000e+00  1.5843820763353636e-01 1.1699827110159503e-05 0.0000000000000000e+00  2.1393115346753336e-01 4.1838957051044620e-04 0.0000000000000000e+00  2.1692583370622998e-01 2.4337456885038548e-03 0.0000000000000000e+00  1.3475017310357482e-01 1.1932157318027634e-03 0.0000000000000000e+00  2.1384338591651025e-01 1.9975463005171883e-06 0.0000000000000000e+00  2.1399502116386745e-01 5.0682972180743679e-06 0.0000000000000000e+00  2.1001763611994959e-01 8.9428372834914951e-06 0.0000000000000000e+00  2.1298078109567209e-01 2.3613245231315173e-05 0.0000000000000000e+00  1.4268710660257972e-01 6.2255091556732533e-06 0.0000000000000000e+00  1.5093482196272778e-01 1.2825553582474618e-05 0.0000000000000000e+00  2.1028761775932681e-01 2.0119267686313685e-01 0.0000000000000000e+00  4.1739038226550867e-02 7.0266693465025926e-02 0.0000000000000000e+00  1.2781156837627233e-01 4.1769703151626932e-03 0.0000000000000000e+00  2.1815526317543429e-01 -4.3457476479939906e-03 0.0000000000000000e+00  1.8506302744181294e-01 3.8969889639013080e-04 0.0000000000000000e+00  2.1279677658454668e-01 2.3218226262799340e-04 0.0000000000000000e+00  2.1506977887257486e-01 1.9794711080684938e-03 0.0000000000000000e+00  2.0873773539849891e-01 1.0564897546685863e-05 0.0000000000000000e+00  1.5162063455636374e-01 5.8665943388097684e-04 0.0000000000000000e+00  2.1253514837174434e-01 9.1158517748552987e-04 0.0000000000000000e+00  2.3488366119801962e-01 -4.7140059221882306e-03 0.0000000000000000e+00  1.4646206344292295e-01 2.7957837818523505e-05 0.0000000000000000e+00  2.1025957636618828e-01 9.2049935781956724e-05 0.0000000000000000e+00  1.4382153487958643e-01 9.3569773338737867e-06 0.0000000000000000e+00  1.5148529739279104e-01 8.3292932822128476e-02 0.0000000000000000e+00  2.5071631331335137e-01 1.3606259917665786e-01 0.0000000000000000e+00  2.1280795465412730e-01 3.2230623870121336e-02 0.0000000000000000e+00  1.1026855725863279e-01 5.8855139555413069e-03 0.0000000000000000e+00  2.9106862746908269e-01 -7.8100344694542745e-02 0.0000000000000000e+00  1.9649622712232881e-01 6.4098825710876889e-03 0.0000000000000000e+00  3.9214422469441573e-01 1.8448372311568557e-02 0.0000000000000000e+00  2.1102033655447552e-01 1.6514008091204034e-03 0.0000000000000000e+00  2.0236680737633417e-01 2.4519817500006391e-03 0.0000000000000000e+00  3.5079694771092024e-01 1.9384971259209635e-01 0.0000000000000000e+00  2.7483505889001558e-01 3.7001692533890601e-02 0.0000000000000000e+00  2.3194720067971078e-01 7.1229636562387025e-02 0.0000000000000000e+00  2.1400037591202836e-01 8.3070309202659085e-05 0.0000000000000000e+00  2.0049891346021717e-01 -1.1494149699823674e-05 0.0000000000000000e+00  2.1076230945825947e-01 1.2070571756601788e-06 0.0000000000000000e+00  3.5233929537594444e-01 -7.0824813551937815e-02 0.0000000000000000e+00  1.2517586845923512e-01 2.4777236373867875e-02 0.0000000000000000e+00  1.3379139012815119e-01 2.7623380174531740e-04 0.0000000000000000e+00  2.0808695800839072e-01 2.0721845571968156e-02 0.0000000000000000e+00  1.5184660198496985e-01 4.7976782380469207e-02 0.0000000000000000e+00  2.0914642487091778e-01 1.2324438330039475e-03 0.0000000000000000e+00  1.4521364690617114e-01 5.7697873417551088e-04 0.0000000000000000e+00  1.6736230217157796e-01 -9.7207498551860824e-03 0.0000000000000000e+00  4.7136661204975866e-01 4.7662307458424973e-02 0.0000000000000000e+00  1.8300196838744237e-01 -5.0383271835684709e-02 0.0000000000000000e+00  2.7731061823505770e-01 -5.3945667255005554e-02 0.0000000000000000e+00  2.0341949717904348e-01 1.3055225666966052e-05 0.0000000000000000e+00  1.8515807384145153e-01 -2.1507234954550484e-02 0.0000000000000000e+00  2.0300123402153070e-01 4.7665799494618481e-04 0.0000000000000000e+00  2.1173416170704631e-01 9.9194331942334987e-04 0.0000000000000000e+00  2.0293069554979376e-01 -7.5317856621694027e-05 0.0000000000000000e+00  1.0945744348594232e-02 -1.0276150387297548e-02 0.0000000000000000e+00  1.1500849671087562e-01 4.0110164436228611e-05 0.0000000000000000e+00  1.1893296463011406e-01 -7.5565069100665128e-04 0.0000000000000000e+00  1.0843747773134646e-01 -4.8548351468816087e-02 0.0000000000000000e+00  6.3105116563948294e-02 1.7537413376571269e-02 0.0000000000000000e+00  1.9995714465709369e-01 1.5632834546876529e-05 0.0000000000000000e+00  1.2297654437408007e-01 3.6423460025210553e-06 0.0000000000000000e+00  4.0698112618099219e-01 -4.2504121028171214e-02 0.0000000000000000e+00  2.1068934541520074e-01 1.4351795260831123e-04 0.0000000000000000e+00  2.0445548633190727e-01 2.1611425068494492e-05 0.0000000000000000e+00  3.5785422227865321e-02 3.5544156981587394e-08 0.0000000000000000e+00  1.1265539882647969e-01 -7.4695552114402167e-02 0.0000000000000000e+00  1.5899175018008571e-01 4.2259125854605673e-02 0.0000000000000000e+00  2.1227303284283602e-01 3.0938992326512215e-05 0.0000000000000000e+00  2.0262731155927971e-01 2.4560382891970620e-04 0.0000000000000000e+00  8.4872679028670461e-02 -5.6133948766773850e-03 0.0000000000000000e+00  2.0382366125499177e-01 -2.2736997148184827e-02 0.0000000000000000e+00  3.8079139575499410e-01 3.5740596141962858e-02 0.0000000000000000e+00  1.3292089074714686e-01 2.7313079111853332e-04 0.0000000000000000e+00  1.1343396780024202e-01 3.6502923638242770e-05 0.0000000000000000e+00  1.2591038175013544e-01 -3.9678056511414179e-06 0.0000000000000000e+00  -2.5279828339293459e-03 3.2633382825561955e-02 0.0000000000000000e+00  3.3356381747951047e-01 5.5419611072053911e-08 0.0000000000000000e+00  1.1948610565554918e-01 5.8291748226758076e-04 0.0000000000000000e+00  3.9764054271742377e-01 5.8184542619576828e-03 0.0000000000000000e+00  1.3015182589271504e-01 1.5398312219826621e-06 0.0000000000000000e+00  2.0063613205275216e-01 4.5404772310184216e-03 0.0000000000000000e+00  1.1852652095589122e-01 -5.3385476055710433e-08 0.0000000000000000e+00  2.1077622225005482e-01 8.6588880328868367e-06 0.0000000000000000e+00  1.2592595067738807e-01 1.1527767723206100e-05 0.0000000000000000e+00  2.1733315841712589e-01 -2.7179473774363249e-09 0.0000000000000000e+00  1.2592861469232861e-01 8.3485168351330223e-06 0.0000000000000000e+00  2.0080420042970917e-01 1.1069154896668342e-03 0.0000000000000000e+00  2.1282006040544676e-01 4.6177354436427784e-06 0.0000000000000000e+00  1.2616537469585060e-01 4.6855166266379536e-04 0.0000000000000000e+00  9.9912207913185905e-02 5.0921281885430987e-04 0.0000000000000000e+00  1.9680046065232129e-01 1.5919127179784551e-03 0.0000000000000000e+00  7.4697357923342575e-02 -9.3704206028628560e-03 0.0000000000000000e+00  3.1877527209847883e-01 -1.8544445335149654e-02 0.0000000000000000e+00  2.8195546290386614e-01 -2.2725723026503906e-02 0.0000000000000000e+00  4.2127883990496967e-01 -5.7826143361725924e-02 0.0000000000000000e+00  1.1524500079848676e-01 1.2735986217106876e-04 0.0000000000000000e+00  3.5142784662837040e-01 -9.2882155012709827e-02 0.0000000000000000e+00  2.5037019258005477e-01 -2.8049642813986950e-02 0.0000000000000000e+00  1.9593745420402528e-01 1.5283520018062444e-05 0.0000000000000000e+00  2.1324663380661071e-01 -1.0286985729707442e-02 0.0000000000000000e+00  9.6926254251252827e-02 8.1241593827206331e-06 0.0000000000000000e+00  1.1189658811934311e-01 -1.2027022969128238e-02 0.0000000000000000e+00  2.1916270745509162e-01 3.6095376446471103e