<?xml version="1.0"?>
<VTKFile type="UnstructuredGrid"  version="0.1"  >
<UnstructuredGrid>
<Piece  NumberOfPoints="1404" NumberOfCells="2604">
<Points>
<DataArray  type="Float64"  NumberOfComponents="3"  format="ascii">0 0.41 0  0 0 0  2.2 0 0  2.2 0.41 0  0.2353553390593274 0.2353553390593274 0  0.25 0.2 0  0.2353553390593274 0.1646446609406726 0  0.2 0.15 0  0.1646446609406726 0.1646446609406726 0  0.15 0.2 0  0.1646446609406726 0.2353553390593274 0  0.2 0.25 0  0.6923879532511287 0.188268343236509 0  0.7 0.15 0  0.6923879532511287 0.1117316567634909 0  0.6707106781186547 0.07928932188134523 0  0.6382683432365089 0.05761204674887133 0  0.6 0.04999999999999999 0  0.5617316567634909 0.05761204674887134 0  0.5292893218813453 0.07928932188134524 0  0.5076120467488713 0.111731656763491 0  0.5 0.15 0  0.5076120467488713 0.188268343236509 0  0.5292893218813453 0.2207106781186547 0  0.561731656763491 0.2423879532511287 0  0.6 0.25 0  0.6382683432365089 0.2423879532511287 0  0.6707106781186547 0.2207106781186547 0  1.1 0 0  0 0.205 0  1.1 0.41 0  0.55 0 0  0.55 0.41 0  0.275 0 0  0.8250000000000001 0 0  0.275 0.41 0  0.8250000000000001 0.41 0  0.6875 0 0  0.61875 0 0  1.65 0.41 0  1.65 0 0  1.375 0 0  1.375 0.41 0  1.925 0 0  1.925 0.41 0  1.5125 0.205 0  1.7875 0.205 0  0.9625000000000001 0.205 0  1.2375 0.205 0  2.2 0.205 0  1.99375 0.2152743902439024 0  0.4125 0.41 0  2.0625 0 0  2.0625 0.41 0  2.2 0.3075 0  1.7875 0.41 0  1.375 0.1486128048780488 0  1.5125 0 0  1.7875 0 0  1.5125 0.41 0  0.9625000000000001 0.41 0  0.4125 0 0  0.1375 0 0  0.1375 0.41 0  0.6875 0.41 0  0.9625000000000001 0 0  1.2375 0 0  1.1 0.1486128048780488 0  1.2375 0.41 0  1.65 0.1486128048780487 0  0.823495464168302 0.2603780552348366 0  0.3738707794507017 0.2720196349488618 0  0.3662291281331582 0.1311456406657909 0  1.676715909090909 0.2793064024390244 0  1.126715909090909 0.2793064024390244 0  1.348284090909091 0.2793064024390244 0  0.8287581077665108 0.1302150898054257 0  1.894702181800738 0.1282910975492754 0  2.092797818199262 0.1282910975492754 0  1.85625 0.3075 0  0 0.3075 0  0 0.1025 0  2.099172119769978 0.25625 0  0.4752414543992246 0.3180372603390748 0  1.99375 0.08395950269330846 0  1.459960956013612 0.3075 0  1.569025960719943 0.2986889805672169 0  1.03125 0.3278689922742084 0  1.959375 0.3126371951219512 0  1.749222215368287 0.1025 0  1.275777784631713 0.1025 0  0.9228016959331474 0.3075 0  1.000777784631713 0.1025 0  2.2 0.1025 0  1.225938124459196 0.3075 0  1.550777784631713 0.1025 0  1.44375 0.07430640243902442 0  1.16875 0.07430640243902439 0  0.7562500000000001 0.3358727844323386 0  0.89375 0 0  1.899250267340833 0.2229966846119207 0  0.61875 0.41 0  1.766482954545455 0.2934032012195123 0  1.046078563095834 0.2389031808701145 0  1.421109702350723 0.2261157654379721 0  0.07567171807980319 0.25625 0  0.2511897295290552 0.3235829392832554 0  0.07655002503762308 0.1488653460959645 0  0.1377245246847496 0.3206030474919778 0  0.6694099692696568 0.3242771941727899 0  0.9168971191497528 0.1295727156104653 0  0.7562500000000001 0 0  2.118919042110979 0.3422084711244843 0  2.13125 0 0  0.06875000000000001 0 0  1.30625 0.41 0  1.597888256393107 0.2173787389261347 0  0.34375 0.41 0  0.2493272016354703 0.08091360081773515 0  0.5588896233436766 0.3264056208677571 0  1.829299675393195 0.07400700849299596 0  0.1334079128307869 0.08523463035786674 0  1.71875 0.41 0  0.06875000000000001 0.41 0  1.16875 0.41 0  2.038220665644273 0.332420740103091 0  0.8810647413215221 0.2027360103977071 0  0.34375 0 0  0.7453891198966415 0.2471459041008237 0  0.42112093004955 0.1988123139090554 0  0.8314023090855964 0.3351170841770613 0  0.89375 0.41 0  0.7906250000000001 0.06615386481594063 0  1.452769549894695 0.1548122580621249 0  1.369219062229598 0.07430640243902442 0  1.30625 0 0  1.07420695807087 0.07430640243902439 0  1.720943423819132 0.1714577452753128 0  1.157188124459196 0.205 0  1.304056576180868 0.1714577452753128 0  1.67579304192913 0.07430640243902437 0  1.209670467133757 0.136210026696477 0  0.4312800784902823 0.08036147352247747 0  0.8723959680194693 0.07066860609690805 0  1.025335513626278 0.1700681449722324 0  0.7945632284247136 0.1940204203251442 0  0.378125 0.3452261501101892 0  0.3307109909790086 0.2037165635083759 0  0.3009701032039409 0.2702970083403109 0  0.20625 0.41 0  1.58125 0 0  0.4812500000000001 0 0  0.9838963872396855 0.2722244191167347 0  0.06772484939107212 0.3260067317374387 0  0.20625 0 0  1.58125 0.41 0  1.631724228912893 0.3381867502687533 0  1.825608881788174 0.14499488549201 0  1.85625 0 0  1.44375 0 0  1.44375 0.41 0  1.85625 0.41 0  2.13125 0.41 0  0.7562500000000001 0.41 0  0.4812500000000001 0.41 0  1.16875 0 0  1.03125 0.41 0  1.03125 0 0  1.71875 0 0  1.99375 0 0  1.99375 0.41 0  0.9408708167433545 0.0651989315768642 0  1.340625 0.3489494290853124 0  1.134375 0.3489494290853123 0  1.700180620188976 0.3438659752031281 0  0.29668452290037 0.1318471691375986 0  0.3175441051360096 0.06496934809856265 0  0.06509151636162461 0.08140814015999148 0  2.135782184673599 0.07126652247502523 0  1.668441847249787 0.2129203728327609 0  1.295782514339747 0.2378437748815763 0  1.409375 0.3520314716057996 0  2.129248544730567 0.1906135162504124 0  2.060771381434487 0.1989445750470348 0  2.013252586573865 0.1496169464686054 0  1.942766402200229 0.1734448904596831 0  1.895522487186454 0.06076163953489683 0  2.069553871656643 0.06605731020975725 0  0.4670911801404742 0.2498408582391372 0  0.7622743084658112 0.1264100838268133 0  1.274680914880868 0.3520219391081363 0  0.3148669572599245 0.3331753056385887 0  1.614713220494657 0.09473434380863296 0  1.72990325744076 0.2380068107952482 0  1.356580098625191 0.2120393231351682 0  2.034370752044885 0.2668681600792073 0  1.51768709249349 0.3426260931494756 0  1.561883724969884 0.1650446847858835 0  1.197344062229598 0.2523725417393646 0  1.804085235518364 0.3468178408964637 0  1.817887819205233 0.2589243285818559 0  1.905897727272727 0.3485060975609756 0  0.7296439733931823 0.06337466644369745 0  0.4250935971865949 0.1394919578475796 0  0.3773030136511669 0.05130372097998036 0  1.192836486056382 0.3562350748565544 0  1.1029124365364 0.226143510831178 0  1.28257088594801 0.2944411014911587 0  0.1905185804731426 0.06029880676029167 0  1.474860187679412 0.2504218616229368 0  1.406767003493824 0.2829282258560709 0  0.5209826960981064 0.2830664557824064 0  0.5131119502780163 0.3617405848213254 0  0.1948220106098172 0.3081993407644811 0  1.845656689180403 0.1998310418452388 0  2.144958525570388 0.2909790873294231 0  2.2 0.15375 0  0.8833025251326762 0.2625402923007629 0  0.171875 0.3653875762360952 0  1.57794966442982 0.3540357145964566 0  0.446875 0.366068291212731 0  0.4272051715206439 0.2891929346190664 0  1.508991196088596 0.1421783375065625 0  1.50436820029908 0.06143401634903343 0  1.223857000523521 0.08235548624535324 0  0.6137904613287555 0.3066826366281556 0  1.153316824384777 0.1289850171317838 0  0.9751573703656133 0.327632618473408 0  2.148922302309752 0.1258841779285271 0  0.9281250000000001 0.3643758685795699 0  1.621993280276081 0.2841214267927899 0  1.550118654119087 0.2461998729100966 0  1.327182649291491 0.1216967252533594 0  0.9939955742738924 0.04663549843168518 0  1.753125 0.04556020050186112 0  1.271875 0.04556020050186116 0  0.9734326767716519 0.1506854560854393 0  0.103125 0.3675775577080512 0  1.94956388244759 0.1180512551534177 0  1.949997712993411 0.04965831614304109 0  0.717433898748555 0.295596016333797 0  1.771961817615021 0.1530278789497521 0  1.909246823951428 0.2812757146784527 0  0 0.35875 0  1.050632804931928 0.1226269704412814 0  0.05695108326502596 0.2024009637347154 0  1.948575539857022 0.2445328248721197 0  1.697271520964565 0.1233917627620729 0  1.065625 0.3689344961371042 0  1.085849084308977 0.3170853572226867 0  0.1015495998772944 0.04226029099983852 0  1.577403511714593 0.05463601888079143 0  1.751571320346033 0.3651102912045228 0  2.2 0.35875 0  0.7441773632462837 0.1786786606458751 0  0 0.05125 0  1.466879772203159 0.3611261772912453 0  0.6282230348858767 0.3577675483994025 0  1.990280163552011 0.3564754268533217 0  1.17471064520912 0.2990917256188288 0  0 0.25625 0  2.2 0.25625 0  2.2 0.05125 0  0 0.15375 0  1.853978576207987 0.35875 0  1.515638456102889 0.2882700110184686 0  2.150453692751374 0.2387066338105111 0  1.323782677156475 0.04897634338873398 0  1.409375 0.03715320121951221 0  1.406484531114799 0.1087852750766809 0  1.134375 0.03715320121951219 0  0.721875 0.3729363922161693 0  0.7941695928236929 0.3696489254637395 0  0.7934827162619036 0.3013409431456604 0  1.627401732573545 0.04552157221025036 0  0.9352049974617431 0.2507047965699472 0  0.8763260682738339 0.3611103317460093 0  2.045405893604797 0.1105340662939892 0  1.255408269734577 0.1577307500159216 0  2.028125 0.03707597992059326 0  1.003030137506755 0.3689344961371042 0  1.248258025468107 0.2565907092181813 0  1.203125 0.03661323374043041 0  0.4800125512335631 0.0549472816999725 0  2.072662025974815 0.2975086504196739 0  0.240625 0.3729825336867542 0  1.113252391110535 0.10238286244357 0  1.071052763974265 0.1885202618768825 0  0.8738809401657862 0.3106483608284829 0  0.6786819423003397 0.2677558482644021 0  1.887722846421017 0.1760882698830035 0  1.472640588990488 0.1118278026240017 0  0.5843750000000001 0.41 0  1.865937103925594 0.2604137786483804 0  1.463913572748262 0.2030442564990043 0  1.376426316059077 0.3186741374914345 0  0.1038643885363755 0.2162701735320032 0  0.1769473813227781 0.1070849728467114 0  0.458787839809176 0.171541653775316 0  0.240625 0 0  0.04179569703428024 0.2877217852556549 0  0.1258346557601885 0.2699740073054968 0  1.722140693354707 0.282908100935778 0  0.41206179117512 0.2448172567039922 0  0.3702471778075604 0.2265217604228704 0  0.3714881805374215 0.1786967818665642 0  1.77397096061971 0.2481483237422926 0  2.105123889160691 0.03743885948498647 0  1.001138337938679 0.229719337663998 0  1.051242910646791 0.2854826559431138 0  1.395420985247586 0.18
[...]
<PointData  Vectors="f_37"> 
<DataArray  type="Float64"  Name="f_37"  NumberOfComponents="3" format="ascii">2.5149537627264795e-07 4.9956051356045727e-08 0.0000000000000000e+00  -4.4568840416898953e-06 -3.4969821244513121e-07 0.0000000000000000e+00  -6.8588765784901022e-07 4.8614442583980629e-10 0.0000000000000000e+00  -9.1436069392302368e-07 -5.0663836434942029e-11 0.0000000000000000e+00  -2.3002789466401799e-07 3.5286138692008594e-07 0.0000000000000000e+00  1.1820535235546332e-07 -1.6722131542969340e-07 0.0000000000000000e+00  2.7076961083071221e-07 8.5671147513670138e-08 0.0000000000000000e+00  -8.5837430748060648e-07 -3.0156020858863297e-07 0.0000000000000000e+00  -1.1603253117101846e-06 -1.3467628122871922e-07 0.0000000000000000e+00  2.0436411121343716e-07 -3.0684843738741860e-07 0.0000000000000000e+00  -9.5015775774148385e-07 -6.0983478811805771e-07 0.0000000000000000e+00  -1.3015935192664667e-06 -2.9986405484558810e-07 0.0000000000000000e+00  7.0038225232360057e-07 2.3516652825805720e-07 0.0000000000000000e+00  -6.0016720982553646e-07 -1.0270338076192482e-06 0.0000000000000000e+00  -6.4445362092674736e-07 -6.2284759021435359e-07 0.0000000000000000e+00  -2.4811374724979392e-06 -4.1827250545973611e-07 0.0000000000000000e+00  1.2370379502638162e-06 9.8684592328802112e-07 0.0000000000000000e+00  3.3688248676061933e-01 9.4343856571411838e-02 0.0000000000000000e+00  4.1964688469940222e-06 2.3067480179527591e-06 0.0000000000000000e+00  3.3480067687505330e-06 -2.3398044121315159e-08 0.0000000000000000e+00  -1.7408098344033904e-06 -1.3820798172353504e-07 0.0000000000000000e+00  -3.9588734023380165e-07 -9.2620746083100375e-08 0.0000000000000000e+00  9.5442303721674310e-08 -7.3998751238041216e-07 0.0000000000000000e+00  -6.6194415017246970e-07 -2.2520902748104899e-06 0.0000000000000000e+00  -2.8850693670485300e-06 -1.4866409963045930e-06 0.0000000000000000e+00  -4.0924839797606870e-06 -5.5440876404591741e-07 0.0000000000000000e+00  -4.1422157797805541e-06 -4.7849659267000018e-07 0.0000000000000000e+00  1.6985071464745308e-07 6.5980218113715969e-08 0.0000000000000000e+00  -3.6752665786664030e-06 6.3934128547752934e-07 0.0000000000000000e+00  1.6583343292662950e-01 -4.4592207551013816e-07 0.0000000000000000e+00  1.6348019633637028e-06 4.2274940312413797e-07 0.0000000000000000e+00  4.1912952714564520e-06 2.3126835859176606e-06 0.0000000000000000e+00  -4.0634748875372785e-07 1.2915499289171168e-07 0.0000000000000000e+00  5.0997546352952193e-07 7.7007888341960913e-08 0.0000000000000000e+00  7.7833473968946411e-07 -2.3504373334461904e-07 0.0000000000000000e+00  -7.7698652328984690e-07 1.0236537842811941e-07 0.0000000000000000e+00  -1.5392507643394050e-06 -1.0858328401458526e-07 0.0000000000000000e+00  -2.7583413007480167e-06 -5.3345778807088261e-07 0.0000000000000000e+00  -9.5797595838562620e-06 -5.0218318287961896e-07 0.0000000000000000e+00  -1.0225604945715933e-06 -3.8722259289849487e-09 0.0000000000000000e+00  -1.3018516513750035e-06 -5.5777516991457497e-09 0.0000000000000000e+00  -4.6527858450947750e-07 -1.6844431342954823e-08 0.0000000000000000e+00  -7.6445771332187333e-07 -3.7727264884085274e-08 0.0000000000000000e+00  -5.2399489550701761e-07 -2.4684362481566152e-10 0.0000000000000000e+00  -7.1933660468173094e-08 -3.0912366760634835e-10 0.0000000000000000e+00  2.1497133741349286e-01 1.6303007543675935e-03 0.0000000000000000e+00  2.1497174980421724e-01 1.6613889738137947e-04 0.0000000000000000e+00  2.3968210414038793e-01 -7.1016448979255145e-02 0.0000000000000000e+00  2.3160094485413171e-01 -1.1807961633340615e-02 0.0000000000000000e+00  2.1499417342740276e-01 -2.5428779427978788e-06 0.0000000000000000e+00  2.1486192034727827e-01 1.9238105622411521e-05 0.0000000000000000e+00  3.5863706794258042e-07 -4.4753798316383740e-08 0.0000000000000000e+00  1.6358578788133859e-07 5.7423290713858397e-10 0.0000000000000000e+00  -5.9397054884926302e-07 8.5822074759833702e-10 0.0000000000000000e+00  1.9035626059732055e-01 -4.8170433716238615e-06 0.0000000000000000e+00  -8.6734744596973434e-07 -1.4132359582198060e-09 0.0000000000000000e+00  2.1179658946156371e-01 1.7506780511777132e-03 0.0000000000000000e+00  -1.2635622172108478e-06 -1.3587190623665681e-08 0.0000000000000000e+00  -1.0638177335075173e-06 -1.5056405144581621e-09 0.0000000000000000e+00  -7.0322758446318186e-07 -1.3457378132453567e-08 0.0000000000000000e+00  5.6593914792727285e-08 3.7156684057188592e-08 0.0000000000000000e+00  -4.6947968381408681e-07 -1.0693121474092579e-07 0.0000000000000000e+00  -8.2037849626751761e-07 -8.2984243758328353e-08 0.0000000000000000e+00  -4.5941553569582843e-07 -1.2370444657757005e-07 0.0000000000000000e+00  -2.3373450467832863e-06 -4.5216363209133830e-08 0.0000000000000000e+00  2.6427395618494813e-06 -4.8078432772799371e-07 0.0000000000000000e+00  -1.9315877489311214e-07 2.1094704270820680e-07 0.0000000000000000e+00  1.8460845625554601e-01 -9.0346795951245659e-02 0.0000000000000000e+00  -1.3089960776036611e-06 -1.9097443516884261e-07 0.0000000000000000e+00  2.1068272464116367e-01 5.1121577943383939e-04 0.0000000000000000e+00  2.8851452996548033e-01 -4.2314489787105093e-02 0.0000000000000000e+00  1.0283833280844276e-01 1.0622017111409283e-03 0.0000000000000000e+00  3.0862530735945071e-01 1.1062628697232667e-01 0.0000000000000000e+00  2.0516913989385024e-01 3.6456090307583145e-04 0.0000000000000000e+00  2.5333539194173060e-01 -3.1734735571398921e-02 0.0000000000000000e+00  2.0360778583490585e-01 4.8269101066989355e-03 0.0000000000000000e+00  5.6119650690181801e-02 6.5528834322042692e-02 0.0000000000000000e+00  2.0455845259225133e-01 4.2978041822830898e-05 0.0000000000000000e+00  2.0450395974787192e-01 1.0908612043827359e-05 0.0000000000000000e+00  1.9030398826517231e-01 3.9964767608511773e-05 0.0000000000000000e+00  7.5234906580514974e-02 -3.6657901093000839e-10 0.0000000000000000e+00  2.7319256211048654e-01 2.7683219115368760e-08 0.0000000000000000e+00  2.1139272608278287e-01 2.4631454630774688e-06 0.0000000000000000e+00  2.3472101234410245e-01 7.2366659514503093e-02 0.0000000000000000e+00  1.7333711705166346e-01 9.2534450664756115e-06 0.0000000000000000e+00  1.8828370871574340e-01 1.8061899121732351e-03 0.0000000000000000e+00  1.9543782188789002e-01 8.0581248546429511e-04 0.0000000000000000e+00  2.2485964611027498e-01 -4.1148953302481660e-02 0.0000000000000000e+00  1.8629812703188436e-01 7.5529816633451537e-06 0.0000000000000000e+00  1.9050512829493757e-01 1.3637316134689121e-04 0.0000000000000000e+00  1.9035427652200859e-01 -5.3055275152818042e-03 0.0000000000000000e+00  3.8868855790633294e-01 -7.6993104525571857e-02 0.0000000000000000e+00  4.5814917174160905e-02 -3.3798143796382588e-02 0.0000000000000000e+00  1.9032098389911709e-01 1.8354013427134159e-06 0.0000000000000000e+00  1.8359701555710961e-01 1.0075203722281158e-02 0.0000000000000000e+00  1.9131489552728401e-01 8.7600861551091172e-04 0.0000000000000000e+00  1.6437764078666328e-01 1.2777464409525249e-03 0.0000000000000000e+00  1.3628187015241230e-01 -2.3826824281376655e-02 0.0000000000000000e+00  4.3469302001512511e-01 -4.1139189131202521e-02 0.0000000000000000e+00  2.5053670525090432e-06 -6.2575288083366875e-07 0.0000000000000000e+00  2.1462517179138577e-01 5.0293818812374560e-05 0.0000000000000000e+00  -1.0594053121862337e-06 2.3064204284696312e-07 0.0000000000000000e+00  1.9908521577789606e-01 1.4471104273613172e-04 0.0000000000000000e+00  3.3553288599994008e-01 -1.1263261859352747e-01 0.0000000000000000e+00  2.1437663895298348e-01 2.7126866899434901e-03 0.0000000000000000e+00  1.2566625433915365e-01 7.1521813524319647e-02 0.0000000000000000e+00  2.3124227769151287e-01 1.3874909181022013e-02 0.0000000000000000e+00  2.0871790607025537e-01 2.4676275023408901e-02 0.0000000000000000e+00  1.4768862585861495e-01 7.3530209754935419e-02 0.0000000000000000e+00  4.6460248775959928e-01 -1.1394027132793406e-02 0.0000000000000000e+00  5.1343231558866213e-02 2.0249331438862875e-02 0.0000000000000000e+00  -8.9476890557701050e-08 -2.0457765704629040e-07 0.0000000000000000e+00  1.5259084067281392e-01 -7.3668847183618878e-07 0.0000000000000000e+00  -1.7243947184559439e-06 -2.5007897170605066e-09 0.0000000000000000e+00  -1.2925901050030334e-06 6.3286459802288618e-09 0.0000000000000000e+00  -1.1665558364926421e-06 -7.1447184171213281e-08 0.0000000000000000e+00  2.1470093961094533e-01 8.8558190894664937e-04 0.0000000000000000e+00  -1.6803646779930734e-06 3.7256750810894810e-08 0.0000000000000000e+00  4.0347419161317688e-01 4.3478048713897995e-02 0.0000000000000000e+00  3.7752715752929195e-01 8.2702372330845111e-02 0.0000000000000000e+00  1.6135580350833004e-01 2.7726843237970770e-05 0.0000000000000000e+00  3.4345895949573169e-01 1.3432097607274644e-02 0.0000000000000000e+00  -1.0784671787875213e-06 -2.9472600318394143e-09 0.0000000000000000e+00  -1.6476234218605388e-07 -3.7448409344429689e-08 0.0000000000000000e+00  2.2800908632965117e-08 -1.0891089181048707e-07 0.0000000000000000e+00  1.6585903319853976e-01 -2.9219342372766422e-06 0.0000000000000000e+00  1.4753970971777225e-01 1.9214184209595780e-03 0.0000000000000000e+00  -3.1129815515499884e-07 -5.3875213610924925e-08 0.0000000000000000e+00  1.4523772841327151e-01 -2.1393522689003863e-02 0.0000000000000000e+00  1.6687462903236469e-01 1.5595270004419803e-01 0.0000000000000000e+00  3.9734553581156301e-01 -4.9645533447203759e-02 0.0000000000000000e+00  1.6848546882014663e-06 -1.6997264605338062e-07 0.0000000000000000e+00  9.1088719982922908e-02 5.1936444683668793e-02 0.0000000000000000e+00  2.1247980260417890e-01 2.0656320465268531e-03 0.0000000000000000e+00  1.6575369101835483e-01 1.3316393858389445e-03 0.0000000000000000e+00  2.2074253084604840e-07 3.0451800184952320e-08 0.0000000000000000e+00  7.1562837808411522e-02 -3.8629600685748923e-02 0.0000000000000000e+00  2.1370388037539115e-01 2.9237083908956684e-04 0.0000000000000000e+00  2.6131844323648146e-01 -5.5057130026776882e-02 0.0000000000000000e+00  2.1665028600643463e-01 -2.5484946419539771e-03 0.0000000000000000e+00  1.6199282007985255e-01 1.9347238732782805e-04 0.0000000000000000e+00  2.0191738419763269e-01 -3.0275374162103165e-02 0.0000000000000000e+00  2.3162702253624107e-01 2.6673241215520706e-02 0.0000000000000000e+00  2.9915219756603599e-02 2.4320979867082471e-02 0.0000000000000000e+00  1.9061960903655303e-01 -9.4919943008399482e-02 0.0000000000000000e+00  3.9503640143257891e-02 3.4387931264485257e-02 0.0000000000000000e+00  2.0918426489269010e-01 7.9373529751896061e-03 0.0000000000000000e+00  3.9360303867915267e-02 1.2647151415128342e-02 0.0000000000000000e+00  1.0252501235394722e-01 -2.2712336948575312e-02 0.0000000000000000e+00  -8.3714550231214106e-07 -1.1795283025826555e-07 0.0000000000000000e+00  -5.3794509306407694e-07 -8.0756788750688831e-09 0.0000000000000000e+00  -8.8963533529068083e-08 2.7599644578582635e-07 0.0000000000000000e+00  3.7645602024283553e-01 -1.0405042754416384e-01 0.0000000000000000e+00  7.8091619615782301e-02 3.1578305396607775e-02 0.0000000000000000e+00  -2.1540679259920550e-06 -1.1091085067437591e-07 0.0000000000000000e+00  -7.6468511367340608e-07 -6.4425137111160094e-09 0.0000000000000000e+00  1.5779575870817558e-01 2.7772764891955776e-04 0.0000000000000000e+00  2.0962549472182365e-01 9.2345569857134148e-05 0.0000000000000000e+00  -7.4145061083241845e-07 -4.1988967203988898e-10 0.0000000000000000e+00  -7.4198024406583179e-07 -2.5158053743052903e-08 0.0000000000000000e+00  -1.0835648393666517e-06 -2.8212468137216133e-08 0.0000000000000000e+00  -1.6247271990792542e-07 -2.9432088137911687e-11 0.0000000000000000e+00  -1.1145673336684940e-07 -2.2545426205807762e-10 0.0000000000000000e+00  4.4310594684437958e-07 -3.0029259622033560e-07 0.0000000000000000e+00  -1.9410369519016810e-06 -2.0677774426659065e-07 0.0000000000000000e+00  -2.9070808824442531e-06 6.2523200055525116e-07 0.0000000000000000e+00  1.2563022861446760e-06 4.0087297431755986e-07 0.0000000000000000e+00  -2.4463989775436738e-07 -7.8942939421678900e-08 0.0000000000000000e+00  1.4773372094768683e-07 -1.9169318904361697e-09 0.0000000000000000e+00  -9.6454257157564083e-07 7.4164659299598513e-10 0.0000000000000000e+00  -3.3314642351803348e-07 -3.5702252560098606e-10 0.0000000000000000e+00  7.0846892700795012e-03 4.2375350908008015e-03 0.0000000000000000e+00  1.3511495419325276e-01 2.9659602547916905e-03 0.0000000000000000e+00  1.1733388326091451e-01 -5.6074629424036104e-05 0.0000000000000000e+00  1.4987543022827074e-01 1.2580865455321584e-04 0.0000000000000000e+00  2.9369706990917299e-01 7.7478255734837881e-02 0.0000000000000000e+00  3.3477315495726845e-01 5.5113640566137483e-02 0.0000000000000000e+00  3.1535994061540107e-01 2.6446395930663866e-02 0.0000000000000000e+00  1.5753986773910603e-01 1.1624733422494550e-05 0.0000000000000000e+00  2.1486492764319981e-01 4.9764728427064905e-04 0.0000000000000000e+00  2.1886444067810201e-01 3.3667942330852284e-03 0.0000000000000000e+00  1.3309211819043307e-01 1.4590261695594795e-03 0.0000000000000000e+00  2.1476685937220036e-01 2.0114084718792052e-06 0.0000000000000000e+00  2.1493878201842620e-01 5.4960748486961535e-06 0.0000000000000000e+00  2.1058400946889769e-01 8.8825915441747981e-06 0.0000000000000000e+00  2.1381078897916761e-01 2.5548896700652963e-05 0.0000000000000000e+00  1.4170470145824732e-01 7.0336528917083808e-06 0.0000000000000000e+00  1.4998750367749000e-01 1.2768925501180524e-05 0.0000000000000000e+00  2.0899987994120428e-01 1.9904254472632335e-01 0.0000000000000000e+00  4.3034761264138965e-02 6.8816945583749040e-02 0.0000000000000000e+00  1.2434212528671404e-01 5.0362117978282796e-03 0.0000000000000000e+00  2.1836007874967608e-01 -4.7826133194132257e-03 0.0000000000000000e+00  1.8464825473302321e-01 4.6424353514579680e-04 0.0000000000000000e+00  2.1360045305632638e-01 2.7219739968447812e-04 0.0000000000000000e+00  2.1640194107563163e-01 2.6182825270556326e-03 0.0000000000000000e+00  2.0920490132074840e-01 1.1065156488506645e-05 0.0000000000000000e+00  1.5044824167682871e-01 7.0028585774460498e-04 0.0000000000000000e+00  2.1336114822888833e-01 1.1116394383017137e-03 0.0000000000000000e+00  2.4007283682846006e-01 -7.6728469099190677e-03 0.0000000000000000e+00  1.4548930988969644e-01 3.2082574280722811e-05 0.0000000000000000e+00  2.1083888418444569e-01 1.0528727045757082e-04 0.0000000000000000e+00  1.4284399165127207e-01 9.7207139369466996e-06 0.0000000000000000e+00  1.5300491800531629e-01 8.3310415384267131e-02 0.0000000000000000e+00  2.5026335967815799e-01 1.3498900671129538e-01 0.0000000000000000e+00  2.1388344934282036e-01 3.2020336071878826e-02 0.0000000000000000e+00  1.0559245379807371e-01 5.7900387009761425e-03 0.0000000000000000e+00  2.9995226811543785e-01 -8.7538237101526847e-02 0.0000000000000000e+00  1.9533691208846396e-01 8.1265976306688376e-03 0.0000000000000000e+00  3.9204910550787048e-01 1.8408466590253636e-02 0.0000000000000000e+00  2.1155290842912572e-01 2.0521731263606221e-03 0.0000000000000000e+00  2.0209618790105460e-01 3.0951185092207250e-03 0.0000000000000000e+00  3.4991565997567409e-01 1.9247036617200922e-01 0.0000000000000000e+00  2.7409705217493474e-01 3.6524675878991615e-02 0.0000000000000000e+00  2.3199204067849466e-01 7.1310694534189270e-02 0.0000000000000000e+00  2.1494608925248626e-01 9.4345631787408528e-05 0.0000000000000000e+00  2.0051148539098818e-01 -1.1798383815801034e-05 0.0000000000000000e+00  2.1138418022194150e-01 1.7633235761248737e-06 0.0000000000000000e+00  3.4624200155524393e-01 -6.4778870689939538e-02 0.0000000000000000e+00  1.2546146861816429e-01 2.4900214770037253e-02 0.0000000000000000e+00  1.3267755389955235e-01 3.2396714504817192e-04 0.0000000000000000e+00  2.0777899591764681e-01 2.0828268715823751e-02 0.0000000000000000e+00  1.5295696142524254e-01 4.7510032099310165e-02 0.0000000000000000e+00  2.0976812430228001e-01 1.5062090242378052e-03 0.0000000000000000e+00  1.4450993346008570e-01 6.8834640860896367e-04 0.0000000000000000e+00  1.6492168876747043e-01 -1.2493927123648716e-02 0.0000000000000000e+00  4.7122640256354664e-01 4.7901376792263667e-02 0.0000000000000000e+00  1.8006465277290595e-01 -5.7796672033940295e-02 0.0000000000000000e+00  2.8613613667912929e-01 -5.4971295263206349e-02 0.0000000000000000e+00  2.0357181221124737e-01 1.3035488061571694e-05 0.0000000000000000e+00  1.9167221084789035e-01 -2.1581176098453590e-02 0.0000000000000000e+00  2.0307775711126141e-01 5.6784242650211828e-04 0.0000000000000000e+00  2.1238555526958094e-01 1.2112090759592543e-03 0.0000000000000000e+00  2.0349388277719682e-01 -3.5952897910501838e-04 0.0000000000000000e+00  3.7518502881843095e-03 -8.0014481706038535e-03 0.0000000000000000e+00  1.1405332896576865e-01 4.5193054252894812e-05 0.0000000000000000e+00  1.1824238707156613e-01 -1.2014941971927519e-03 0.0000000000000000e+00  1.0572933732907559e-01 -3.7860901995080062e-02 0.0000000000000000e+00  6.3159458777804170e-02 1.7637615894128759e-02 0.0000000000000000e+00  1.9995110663533266e-01 1.6228075432001744e-05 0.0000000000000000e+00  1.2198641575716547e-01 3.0641372313078995e-06 0.0000000000000000e+00  4.0632171156344898e-01 -4.1214652538018939e-02 0.0000000000000000e+00  2.1131474836151024e-01 1.6681348127044893e-04 0.0000000000000000e+00  2.0466418472103762e-01 2.4105086467325962e-05 0.0000000000000000e+00  3.5785427216058679e-02 4.5919149113470506e-08 0.0000000000000000e+00  1.0563031355453306e-01 -7.2412340840260339e-02 0.0000000000000000e+00  1.5899760423671089e-01 4.2327433586908575e-02 0.0000000000000000e+00  2.1303076667026796e-01 3.2633828786671979e-05 0.0000000000000000e+00  2.0276574734662567e-01 2.8838001244440773e-04 0.0000000000000000e+00  8.6412106233773017e-02 -7.1400390830495576e-03 0.0000000000000000e+00  2.0830009687998832e-01 -2.8683173447527945e-02 0.0000000000000000e+00  3.8076144813322499e-01 3.5760304577471209e-02 0.0000000000000000e+00  1.3204970113142794e-01 3.2249503625649223e-04 0.0000000000000000e+00  1.1246279367467944e-01 4.1229176187404775e-05 0.0000000000000000e+00  1.2492056483278252e-01 -4.5701225890829569e-06 0.0000000000000000e+00  -2.5886370992562603e-03 2.9892079400803802e-02 0.0000000000000000e+00  3.3356381812648228e-01 4.3915059176800104e-08 0.0000000000000000e+00  1.1814229393852582e-01 6.9903842172126286e-04 0.0000000000000000e+00  3.9566768380154782e-01 5.9573632825715194e-03 0.0000000000000000e+00  1.2915697187999461e-01 1.4801334345349216e-06 0.0000000000000000e+00  2.0083916554242909e-01 1.7787433485620765e-03 0.0000000000000000e+00  1.1852651910142714e-01 -6.1950352746783662e-08 0.0000000000000000e+00  2.1139984904038486e-01 8.6156261886828050e-06 0.0000000000000000e+00  1.2493354218491202e-01 1.1410097195413202e-05 0.0000000000000000e+00  2.1733316172507008e-01 -2.3702420938481735e-08 0.0000000000000000e+00  1.2493611764831050e-01 9.3594418278637846e-06 0.0000000000000000e+00  2.0066071154956863e-01 1.3443980243100294e-03 0.0000000000000000e+00  2.1363169389447156e-01 4.4044324120009885e-06 0.0000000000000000e+00  1.2590057794617521e-01 4.1189458206068312e-04 0.0000000000000000e+00  9.9542571331964175e-02 5.9093455187200728e-04 0.0000000000000000e+00  1.9707833159898186e-01 1.9025100608638511e-03 0.0000000000000000e+00  6.8303573025878569e-02 -1.0663071043714386e-02 0.0000000000000000e+00  3.1846459571324248e-01 -1.7839152906484836e-02 0.0000000000000000e+00  2.8421490364574892e-01 -2.1846937552257237e-02 0.0000000000000000e+00  4.1968509929464015e-01 -5.5105153889055319e-02 0.0000000000000000e+00  1.1434350656618032e-01 1.4997731420770652e-04 0.0000000000000000e+00  3.4711423802692204e-01 -8.5430520455338096e-02 0.0000000000000000e+00  2.5603587259396487e-01 -2.7416553942951980e-02 0.0000000000000000e+00  1.9576644590592626e-01 1.5148313768494037e-05 0.0000000000000000e+00  2.1524195323978274e-01 -1.3207742368001809e-02 0.0000000000000000e+00  9.6042712775566585e-02 7.8260962142764338e-06 0.0000000000000000e+00  1.1666218578253709e-01 -1.2662785596265125e-02 0.0000000000000000e+00  2.2156321018659406e-01 4.339505482218