<?xml version="1.0"?>
<VTKFile type="UnstructuredGrid"  version="0.1"  >
<UnstructuredGrid>
<Piece  NumberOfPoints="1404" NumberOfCells="2604">
<Points>
<DataArray  type="Float64"  NumberOfComponents="3"  format="ascii">0 0.41 0  0 0 0  2.2 0 0  2.2 0.41 0  0.2353553390593274 0.2353553390593274 0  0.25 0.2 0  0.2353553390593274 0.1646446609406726 0  0.2 0.15 0  0.1646446609406726 0.1646446609406726 0  0.15 0.2 0  0.1646446609406726 0.2353553390593274 0  0.2 0.25 0  0.6923879532511287 0.188268343236509 0  0.7 0.15 0  0.6923879532511287 0.1117316567634909 0  0.6707106781186547 0.07928932188134523 0  0.6382683432365089 0.05761204674887133 0  0.6 0.04999999999999999 0  0.5617316567634909 0.05761204674887134 0  0.5292893218813453 0.07928932188134524 0  0.5076120467488713 0.111731656763491 0  0.5 0.15 0  0.5076120467488713 0.188268343236509 0  0.5292893218813453 0.2207106781186547 0  0.561731656763491 0.2423879532511287 0  0.6 0.25 0  0.6382683432365089 0.2423879532511287 0  0.6707106781186547 0.2207106781186547 0  1.1 0 0  0 0.205 0  1.1 0.41 0  0.55 0 0  0.55 0.41 0  0.275 0 0  0.8250000000000001 0 0  0.275 0.41 0  0.8250000000000001 0.41 0  0.6875 0 0  0.61875 0 0  1.65 0.41 0  1.65 0 0  1.375 0 0  1.375 0.41 0  1.925 0 0  1.925 0.41 0  1.5125 0.205 0  1.7875 0.205 0  0.9625000000000001 0.205 0  1.2375 0.205 0  2.2 0.205 0  1.99375 0.2152743902439024 0  0.4125 0.41 0  2.0625 0 0  2.0625 0.41 0  2.2 0.3075 0  1.7875 0.41 0  1.375 0.1486128048780488 0  1.5125 0 0  1.7875 0 0  1.5125 0.41 0  0.9625000000000001 0.41 0  0.4125 0 0  0.1375 0 0  0.1375 0.41 0  0.6875 0.41 0  0.9625000000000001 0 0  1.2375 0 0  1.1 0.1486128048780488 0  1.2375 0.41 0  1.65 0.1486128048780487 0  0.823495464168302 0.2603780552348366 0  0.3738707794507017 0.2720196349488618 0  0.3662291281331582 0.1311456406657909 0  1.676715909090909 0.2793064024390244 0  1.126715909090909 0.2793064024390244 0  1.348284090909091 0.2793064024390244 0  0.8287581077665108 0.1302150898054257 0  1.894702181800738 0.1282910975492754 0  2.092797818199262 0.1282910975492754 0  1.85625 0.3075 0  0 0.3075 0  0 0.1025 0  2.099172119769978 0.25625 0  0.4752414543992246 0.3180372603390748 0  1.99375 0.08395950269330846 0  1.459960956013612 0.3075 0  1.569025960719943 0.2986889805672169 0  1.03125 0.3278689922742084 0  1.959375 0.3126371951219512 0  1.749222215368287 0.1025 0  1.275777784631713 0.1025 0  0.9228016959331474 0.3075 0  1.000777784631713 0.1025 0  2.2 0.1025 0  1.225938124459196 0.3075 0  1.550777784631713 0.1025 0  1.44375 0.07430640243902442 0  1.16875 0.07430640243902439 0  0.7562500000000001 0.3358727844323386 0  0.89375 0 0  1.899250267340833 0.2229966846119207 0  0.61875 0.41 0  1.766482954545455 0.2934032012195123 0  1.046078563095834 0.2389031808701145 0  1.421109702350723 0.2261157654379721 0  0.07567171807980319 0.25625 0  0.2511897295290552 0.3235829392832554 0  0.07655002503762308 0.1488653460959645 0  0.1377245246847496 0.3206030474919778 0  0.6694099692696568 0.3242771941727899 0  0.9168971191497528 0.1295727156104653 0  0.7562500000000001 0 0  2.118919042110979 0.3422084711244843 0  2.13125 0 0  0.06875000000000001 0 0  1.30625 0.41 0  1.597888256393107 0.2173787389261347 0  0.34375 0.41 0  0.2493272016354703 0.08091360081773515 0  0.5588896233436766 0.3264056208677571 0  1.829299675393195 0.07400700849299596 0  0.1334079128307869 0.08523463035786674 0  1.71875 0.41 0  0.06875000000000001 0.41 0  1.16875 0.41 0  2.038220665644273 0.332420740103091 0  0.8810647413215221 0.2027360103977071 0  0.34375 0 0  0.7453891198966415 0.2471459041008237 0  0.42112093004955 0.1988123139090554 0  0.8314023090855964 0.3351170841770613 0  0.89375 0.41 0  0.7906250000000001 0.06615386481594063 0  1.452769549894695 0.1548122580621249 0  1.369219062229598 0.07430640243902442 0  1.30625 0 0  1.07420695807087 0.07430640243902439 0  1.720943423819132 0.1714577452753128 0  1.157188124459196 0.205 0  1.304056576180868 0.1714577452753128 0  1.67579304192913 0.07430640243902437 0  1.209670467133757 0.136210026696477 0  0.4312800784902823 0.08036147352247747 0  0.8723959680194693 0.07066860609690805 0  1.025335513626278 0.1700681449722324 0  0.7945632284247136 0.1940204203251442 0  0.378125 0.3452261501101892 0  0.3307109909790086 0.2037165635083759 0  0.3009701032039409 0.2702970083403109 0  0.20625 0.41 0  1.58125 0 0  0.4812500000000001 0 0  0.9838963872396855 0.2722244191167347 0  0.06772484939107212 0.3260067317374387 0  0.20625 0 0  1.58125 0.41 0  1.631724228912893 0.3381867502687533 0  1.825608881788174 0.14499488549201 0  1.85625 0 0  1.44375 0 0  1.44375 0.41 0  1.85625 0.41 0  2.13125 0.41 0  0.7562500000000001 0.41 0  0.4812500000000001 0.41 0  1.16875 0 0  1.03125 0.41 0  1.03125 0 0  1.71875 0 0  1.99375 0 0  1.99375 0.41 0  0.9408708167433545 0.0651989315768642 0  1.340625 0.3489494290853124 0  1.134375 0.3489494290853123 0  1.700180620188976 0.3438659752031281 0  0.29668452290037 0.1318471691375986 0  0.3175441051360096 0.06496934809856265 0  0.06509151636162461 0.08140814015999148 0  2.135782184673599 0.07126652247502523 0  1.668441847249787 0.2129203728327609 0  1.295782514339747 0.2378437748815763 0  1.409375 0.3520314716057996 0  2.129248544730567 0.1906135162504124 0  2.060771381434487 0.1989445750470348 0  2.013252586573865 0.1496169464686054 0  1.942766402200229 0.1734448904596831 0  1.895522487186454 0.06076163953489683 0  2.069553871656643 0.06605731020975725 0  0.4670911801404742 0.2498408582391372 0  0.7622743084658112 0.1264100838268133 0  1.274680914880868 0.3520219391081363 0  0.3148669572599245 0.3331753056385887 0  1.614713220494657 0.09473434380863296 0  1.72990325744076 0.2380068107952482 0  1.356580098625191 0.2120393231351682 0  2.034370752044885 0.2668681600792073 0  1.51768709249349 0.3426260931494756 0  1.561883724969884 0.1650446847858835 0  1.197344062229598 0.2523725417393646 0  1.804085235518364 0.3468178408964637 0  1.817887819205233 0.2589243285818559 0  1.905897727272727 0.3485060975609756 0  0.7296439733931823 0.06337466644369745 0  0.4250935971865949 0.1394919578475796 0  0.3773030136511669 0.05130372097998036 0  1.192836486056382 0.3562350748565544 0  1.1029124365364 0.226143510831178 0  1.28257088594801 0.2944411014911587 0  0.1905185804731426 0.06029880676029167 0  1.474860187679412 0.2504218616229368 0  1.406767003493824 0.2829282258560709 0  0.5209826960981064 0.2830664557824064 0  0.5131119502780163 0.3617405848213254 0  0.1948220106098172 0.3081993407644811 0  1.845656689180403 0.1998310418452388 0  2.144958525570388 0.2909790873294231 0  2.2 0.15375 0  0.8833025251326762 0.2625402923007629 0  0.171875 0.3653875762360952 0  1.57794966442982 0.3540357145964566 0  0.446875 0.366068291212731 0  0.4272051715206439 0.2891929346190664 0  1.508991196088596 0.1421783375065625 0  1.50436820029908 0.06143401634903343 0  1.223857000523521 0.08235548624535324 0  0.6137904613287555 0.3066826366281556 0  1.153316824384777 0.1289850171317838 0  0.9751573703656133 0.327632618473408 0  2.148922302309752 0.1258841779285271 0  0.9281250000000001 0.3643758685795699 0  1.621993280276081 0.2841214267927899 0  1.550118654119087 0.2461998729100966 0  1.327182649291491 0.1216967252533594 0  0.9939955742738924 0.04663549843168518 0  1.753125 0.04556020050186112 0  1.271875 0.04556020050186116 0  0.9734326767716519 0.1506854560854393 0  0.103125 0.3675775577080512 0  1.94956388244759 0.1180512551534177 0  1.949997712993411 0.04965831614304109 0  0.717433898748555 0.295596016333797 0  1.771961817615021 0.1530278789497521 0  1.909246823951428 0.2812757146784527 0  0 0.35875 0  1.050632804931928 0.1226269704412814 0  0.05695108326502596 0.2024009637347154 0  1.948575539857022 0.2445328248721197 0  1.697271520964565 0.1233917627620729 0  1.065625 0.3689344961371042 0  1.085849084308977 0.3170853572226867 0  0.1015495998772944 0.04226029099983852 0  1.577403511714593 0.05463601888079143 0  1.751571320346033 0.3651102912045228 0  2.2 0.35875 0  0.7441773632462837 0.1786786606458751 0  0 0.05125 0  1.466879772203159 0.3611261772912453 0  0.6282230348858767 0.3577675483994025 0  1.990280163552011 0.3564754268533217 0  1.17471064520912 0.2990917256188288 0  0 0.25625 0  2.2 0.25625 0  2.2 0.05125 0  0 0.15375 0  1.853978576207987 0.35875 0  1.515638456102889 0.2882700110184686 0  2.150453692751374 0.2387066338105111 0  1.323782677156475 0.04897634338873398 0  1.409375 0.03715320121951221 0  1.406484531114799 0.1087852750766809 0  1.134375 0.03715320121951219 0  0.721875 0.3729363922161693 0  0.7941695928236929 0.3696489254637395 0  0.7934827162619036 0.3013409431456604 0  1.627401732573545 0.04552157221025036 0  0.9352049974617431 0.2507047965699472 0  0.8763260682738339 0.3611103317460093 0  2.045405893604797 0.1105340662939892 0  1.255408269734577 0.1577307500159216 0  2.028125 0.03707597992059326 0  1.003030137506755 0.3689344961371042 0  1.248258025468107 0.2565907092181813 0  1.203125 0.03661323374043041 0  0.4800125512335631 0.0549472816999725 0  2.072662025974815 0.2975086504196739 0  0.240625 0.3729825336867542 0  1.113252391110535 0.10238286244357 0  1.071052763974265 0.1885202618768825 0  0.8738809401657862 0.3106483608284829 0  0.6786819423003397 0.2677558482644021 0  1.887722846421017 0.1760882698830035 0  1.472640588990488 0.1118278026240017 0  0.5843750000000001 0.41 0  1.865937103925594 0.2604137786483804 0  1.463913572748262 0.2030442564990043 0  1.376426316059077 0.3186741374914345 0  0.1038643885363755 0.2162701735320032 0  0.1769473813227781 0.1070849728467114 0  0.458787839809176 0.171541653775316 0  0.240625 0 0  0.04179569703428024 0.2877217852556549 0  0.1258346557601885 0.2699740073054968 0  1.722140693354707 0.282908100935778 0  0.41206179117512 0.2448172567039922 0  0.3702471778075604 0.2265217604228704 0  0.3714881805374215 0.1786967818665642 0  1.77397096061971 0.2481483237422926 0  2.105123889160691 0.03743885948498647 0  1.001138337938679 0.229719337663998 0  1.051242910646791 0.2854826559431138 0  1.395420985247586 0.18
[...]
<PointData  Vectors="f_37"> 
<DataArray  type="Float64"  Name="f_37"  NumberOfComponents="3" format="ascii">5.8760516197132834e-07 5.7812505464352233e-07 0.0000000000000000e+00  -3.8935435885669566e-06 -8.7155366109966749e-07 0.0000000000000000e+00  -1.2270064580662549e-06 4.7750390908538315e-09 0.0000000000000000e+00  -1.4997381138797817e-06 -5.2164474958921985e-09 0.0000000000000000e+00  5.0755493208468001e-06 -2.4684983299006064e-06 0.0000000000000000e+00  3.6376887782335457e-06 -2.4051259652055873e-06 0.0000000000000000e+00  -1.3981457463927257e-06 -2.3980340195457666e-06 0.0000000000000000e+00  -2.9087007575246758e-06 3.7563715388866201e-07 0.0000000000000000e+00  1.3070718493568676e-05 -4.2820828886842618e-06 0.0000000000000000e+00  -2.7397017279855290e-06 -6.7691067399497680e-06 0.0000000000000000e+00  -1.6331795697759694e-06 3.9964072070138464e-06 0.0000000000000000e+00  2.9864542202985148e-06 2.4260606790883385e-06 0.0000000000000000e+00  5.6834485848483650e-06 -4.5727214253735462e-06 0.0000000000000000e+00  2.8143584191517393e-06 1.3969529148402126e-06 0.0000000000000000e+00  1.9246403886294629e-06 2.9210617468841751e-06 0.0000000000000000e+00  5.8210063996477158e-06 1.5268399420930616e-06 0.0000000000000000e+00  7.3028339287214578e-06 -8.2252447884678532e-07 0.0000000000000000e+00  3.2958043763838951e-01 8.6286744159538020e-02 0.0000000000000000e+00  -3.5914602361043638e-06 -5.3079695606819330e-06 0.0000000000000000e+00  -1.0411345270073243e-05 -9.0070200037324630e-07 0.0000000000000000e+00  -2.3004284470297948e-06 9.6877500698212635e-07 0.0000000000000000e+00  2.6232463782089914e-06 7.1269911985207907e-06 0.0000000000000000e+00  5.6209805881971032e-06 4.0709745961472925e-06 0.0000000000000000e+00  3.7656544921907542e-06 -5.3811437099449246e-06 0.0000000000000000e+00  -4.7578005208058923e-06 -5.2572099697482828e-06 0.0000000000000000e+00  -9.5418270516172844e-06 -1.2777527288831686e-07 0.0000000000000000e+00  -8.8722285821564521e-06 3.3335746605277300e-06 0.0000000000000000e+00  5.8009737984954923e-06 -2.0712338413802611e-06 0.0000000000000000e+00  -1.2686064140724651e-06 2.6893077949275839e-08 0.0000000000000000e+00  1.6583307683803464e-01 -1.4458293422444750e-06 0.0000000000000000e+00  -1.5972467915273247e-06 -1.0108688061495040e-08 0.0000000000000000e+00  1.3442687383600683e-06 -4.9407226878483431e-06 0.0000000000000000e+00  -1.4379160192004415e-07 -5.0442509859463966e-07 0.0000000000000000e+00  1.9111904988448540e-06 -5.9744764905443345e-07 0.0000000000000000e+00  -1.4748503801014829e-06 -2.0216468666066395e-07 0.0000000000000000e+00  1.7292557995406382e-07 -1.1719680249855661e-07 0.0000000000000000e+00  -2.3811082351702217e-06 -9.0177940572575203e-09 0.0000000000000000e+00  -3.4470862417931754e-08 -9.0884964937919792e-08 0.0000000000000000e+00  -2.7920814446887546e-06 -2.3512660623879387e-06 0.0000000000000000e+00  -1.6815417373886297e-06 9.3804810191887921e-10 0.0000000000000000e+00  -2.2279563978741255e-06 -4.4853828052901647e-09 0.0000000000000000e+00  -1.4151861211033134e-06 -4.4146415819657529e-09 0.0000000000000000e+00  -8.4977379585234852e-07 -2.9796256899973526e-09 0.0000000000000000e+00  -1.1045469186156091e-06 3.1093554421255498e-09 0.0000000000000000e+00  -4.3374668146126646e-07 -5.3877678586656744e-09 0.0000000000000000e+00  1.9034212430607148e-01 -1.1508075192892932e-04 0.0000000000000000e+00  1.9033591289568957e-01 -3.7190623403834017e-06 0.0000000000000000e+00  1.9020115846453520e-01 -2.7591853260790587e-02 0.0000000000000000e+00  1.9037492169951778e-01 -1.8398547830113562e-03 0.0000000000000000e+00  1.9034641450102577e-01 -2.1129096509175072e-05 0.0000000000000000e+00  1.9034271387472226e-01 -8.0313510831774733e-06 0.0000000000000000e+00  -4.6020684599010804e-07 -7.6524447975207109e-08 0.0000000000000000e+00  -3.7987108541407274e-07 6.0953387809394755e-09 0.0000000000000000e+00  -1.1486608391935757e-06 8.6583798024074802e-09 0.0000000000000000e+00  1.8896676796744771e-01 -5.3511885911284656e-06 0.0000000000000000e+00  -1.5265526080963392e-06 -2.4070801485687964e-09 0.0000000000000000e+00  1.9006308074115391e-01 -3.9027570582354147e-04 0.0000000000000000e+00  -2.0706199547192253e-06 2.4903609198488096e-09 0.0000000000000000e+00  -1.8255043414702535e-06 -9.7779127114378323e-10 0.0000000000000000e+00  -1.3374253644936633e-06 -5.1532707954024327e-09 0.0000000000000000e+00  -2.0879693146288517e-06 -3.2177386478057377e-08 0.0000000000000000e+00  -3.5678337715309429e-06 -7.8334829815877151e-08 0.0000000000000000e+00  3.3226890258933639e-07 3.3210542835447811e-07 0.0000000000000000e+00  -4.5279407776092948e-06 -4.1804913271911217e-07 0.0000000000000000e+00  -8.5913456014670416e-07 1.3787349386843156e-07 0.0000000000000000e+00  -1.7578380361703644e-06 9.6879286606548100e-08 0.0000000000000000e+00  4.0322572790227829e-07 -2.7289614327451275e-09 0.0000000000000000e+00  1.8679076486347135e-01 -6.2028571951096264e-03 0.0000000000000000e+00  -6.1407345525584146e-07 -3.6853398875054550e-09 0.0000000000000000e+00  1.9030080089820720e-01 -2.8576512632763796e-05 0.0000000000000000e+00  2.5536254069719033e-01 -1.0724171947106130e-01 0.0000000000000000e+00  1.6681763886853185e-01 3.5279107649817204e-02 0.0000000000000000e+00  2.3351690214544549e-01 1.0574403774114570e-01 0.0000000000000000e+00  1.9021443896660079e-01 -8.9553927540042255e-06 0.0000000000000000e+00  1.9389994372388389e-01 -3.9416510605267806e-03 0.0000000000000000e+00  1.9063275493754023e-01 -4.4387039017908432e-04 0.0000000000000000e+00  1.0888528819786747e-01 -3.0765273974635018e-02 0.0000000000000000e+00  1.9017397807034947e-01 1.5415227370355583e-05 0.0000000000000000e+00  1.9015917423638193e-01 -6.4718741050442365e-06 0.0000000000000000e+00  1.8899851128748338e-01 3.3865753101515816e-07 0.0000000000000000e+00  7.5234893152973312e-02 2.3918819139330719e-06 0.0000000000000000e+00  2.7319287069917697e-01 -1.4744458685065555e-06 0.0000000000000000e+00  1.9032898288095229e-01 -1.4315968246290415e-05 0.0000000000000000e+00  2.8682597219667905e-01 7.6168709153092040e-02 0.0000000000000000e+00  1.8535929437931942e-01 -2.9278363231614518e-05 0.0000000000000000e+00  1.8912283702647600e-01 -7.1715065352136382e-05 0.0000000000000000e+00  1.8970488608362340e-01 -3.3784046390876004e-05 0.0000000000000000e+00  1.9619173791720707e-01 -4.7176331126295053e-03 0.0000000000000000e+00  1.8837442958222997e-01 -4.2316097812654713e-07 0.0000000000000000e+00  1.8900522576736178e-01 -6.2841184434146362e-07 0.0000000000000000e+00  1.8792529039739803e-01 -6.8970276780584900e-04 0.0000000000000000e+00  2.2461739727857927e-01 -2.1452527688286462e-02 0.0000000000000000e+00  1.7467934996267132e-01 -1.0584492457738175e-02 0.0000000000000000e+00  1.8901689318017900e-01 -3.0250049248848032e-05 0.0000000000000000e+00  1.9063241715994458e-01 -1.0472739378426335e-03 0.0000000000000000e+00  1.8883201552142326e-01 -3.1479486212418432e-05 0.0000000000000000e+00  1.8090185322335373e-01 -5.5755362609159093e-05 0.0000000000000000e+00  1.7815946515976883e-01 -1.2385051886312872e-03 0.0000000000000000e+00  3.4853375151009180e-01 -6.4298699619163818e-02 0.0000000000000000e+00  -2.3226735104925366e-06 1.2619161254615789e-07 0.0000000000000000e+00  1.9035571662942902e-01 -1.0238969344832505e-06 0.0000000000000000e+00  8.5668291841336379e-08 -2.0210708173840182e-07 0.0000000000000000e+00  1.8981585191794692e-01 2.1272563640116329e-05 0.0000000000000000e+00  1.9463547206510842e-01 -1.1321316713080478e-02 0.0000000000000000e+00  1.9040798415937096e-01 -2.7266502704909469e-04 0.0000000000000000e+00  1.2985449337742228e-01 7.9848897120495532e-02 0.0000000000000000e+00  2.4546097050980631e-01 -7.2930775338729092e-04 0.0000000000000000e+00  2.0824576026337041e-01 3.2339416616159071e-02 0.0000000000000000e+00  1.5397246782237786e-01 1.0501690789383293e-01 0.0000000000000000e+00  4.3907008765112776e-01 -5.1533057614357766e-02 0.0000000000000000e+00  1.6283779083119218e-01 -2.6909035867816671e-02 0.0000000000000000e+00  2.5499236347246744e-07 3.8149789799833613e-07 0.0000000000000000e+00  1.7667418228325152e-01 1.6323824881624262e-05 0.0000000000000000e+00  -2.4839935176105447e-06 -2.0372124415480608e-08 0.0000000000000000e+00  9.1060645715832834e-09 -1.0376993367375273e-07 0.0000000000000000e+00  -5.7240104071919977e-07 -5.2872391656216630e-09 0.0000000000000000e+00  1.9034054533985856e-01 -4.0263449621735057e-05 0.0000000000000000e+00  -1.6709527221963175e-06 1.6989054284544611e-07 0.0000000000000000e+00  3.7161617219639770e-01 5.7996905547489271e-02 0.0000000000000000e+00  3.9379007069596755e-01 5.7938998336099279e-02 0.0000000000000000e+00  1.8093838856429906e-01 -1.8612302080551011e-05 0.0000000000000000e+00  3.3973903617900508e-01 2.3896834098339016e-02 0.0000000000000000e+00  -1.7528804566964911e-06 -3.7117859724970540e-10 0.0000000000000000e+00  9.8413308019489187e-07 1.1373132554105865e-06 0.0000000000000000e+00  -1.0717914866793751e-06 -3.6199711382904453e-10 0.0000000000000000e+00  1.8281117172854053e-01 -1.5364574153701513e-06 0.0000000000000000e+00  1.8190170002584949e-01 -6.4358236758464651e-02 0.0000000000000000e+00  -2.2502253106126583e-06 7.9279320351686783e-08 0.0000000000000000e+00  2.4210958945544911e-01 -1.2553609693259524e-01 0.0000000000000000e+00  1.5086784317301644e-01 1.2661269118278487e-01 0.0000000000000000e+00  2.6715956617170461e-01 -3.3825588839245760e-02 0.0000000000000000e+00  -1.5298033012450932e-06 -1.2105955833625015e-07 0.0000000000000000e+00  1.4005828026549458e-01 2.9291791079254809e-02 0.0000000000000000e+00  1.9021521302223671e-01 -1.7243148389679315e-04 0.0000000000000000e+00  1.8064644285918668e-01 -1.4112651415130160e-04 0.0000000000000000e+00  -3.5710928184771966e-07 4.3838850524809383e-10 0.0000000000000000e+00  1.7363160624692925e-01 -3.3661301703138370e-03 0.0000000000000000e+00  1.9032120533368307e-01 -1.4202235931379949e-05 0.0000000000000000e+00  1.9044238913738498e-01 -4.0573309287197934e-03 0.0000000000000000e+00  1.9003632493369946e-01 -9.0708703462254745e-04 0.0000000000000000e+00  1.8103496830004656e-01 -1.9569872964058342e-05 0.0000000000000000e+00  1.8875968000211429e-01 -1.9327713132525259e-03 0.0000000000000000e+00  1.8667088615632016e-01 1.3302745926083374e-03 0.0000000000000000e+00  1.3951328351893824e-01 -1.0419888651765878e-02 0.0000000000000000e+00  1.8579981637974693e-01 -1.3916955681894848e-02 0.0000000000000000e+00  1.1572292285687259e-01 -1.0793858061448679e-01 0.0000000000000000e+00  2.2753765681092314e-01 1.4938566974293986e-02 0.0000000000000000e+00  6.9004522816560263e-02 7.7900164423375856e-02 0.0000000000000000e+00  1.2346858891531717e-01 -2.0942765696836511e-02 0.0000000000000000e+00  -1.7681662102509753e-06 -9.5236348764916730e-07 0.0000000000000000e+00  -1.0425841267989009e-06 -7.6985207831258111e-09 0.0000000000000000e+00  -4.7311362387773389e-06 3.5142399906507331e-07 0.0000000000000000e+00  2.0472604950689680e-01 -1.7469727717985713e-02 0.0000000000000000e+00  7.6071354171211830e-02 3.8020147064588505e-02 0.0000000000000000e+00  -1.1172552622809007e-06 -2.3296261642293427e-07 0.0000000000000000e+00  -1.2990544057110116e-06 3.3774611478246233e-09 0.0000000000000000e+00  1.7961773782238274e-01 1.4353798849761321e-05 0.0000000000000000e+00  1.9027433050278736e-01 -2.2262823332390209e-07 0.0000000000000000e+00  -1.3756735113606196e-06 2.1087637786220680e-09 0.0000000000000000e+00  -1.7377833258780664e-06 4.9378059349452999e-09 0.0000000000000000e+00  -1.5299544628139133e-06 -5.2914401426202731e-09 0.0000000000000000e+00  -5.4413786349496564e-07 2.6987084344969619e-09 0.0000000000000000e+00  -5.5771469321154183e-07 -2.5526364603315542e-09 0.0000000000000000e+00  1.8541009683710787e-06 5.1795679288026980e-07 0.0000000000000000e+00  -2.7437551522563175e-06 -6.4017901946636908e-07 0.0000000000000000e+00  -1.0797900582375088e-06 2.8135455530876811e-09 0.0000000000000000e+00  -8.3710467479271327e-07 -2.9601698134999240e-08 0.0000000000000000e+00  3.4223711671404206e-09 4.7430091552423679e-08 0.0000000000000000e+00  -2.6929049325121498e-07 -1.2139394778362258e-09 0.0000000000000000e+00  -1.7368880115096219e-06 6.3700541137748353e-09 0.0000000000000000e+00  -7.9384401839305286e-07 -3.3474122962276788e-09 0.0000000000000000e+00  1.5042111354967044e-01 -9.0415005832869978e-03 0.0000000000000000e+00  1.7105065946027559e-01 -1.1359281847931256e-04 0.0000000000000000e+00  1.7408983805636635e-01 -9.6836354138773268e-04 0.0000000000000000e+00  1.7540904952714717e-01 -1.0598908301654524e-06 0.0000000000000000e+00  2.8992996358678558e-01 1.0553428508725664e-01 0.0000000000000000e+00  2.8049330226925945e-01 4.1003709376410381e-02 0.0000000000000000e+00  3.1453313859107401e-01 3.0669552400700965e-02 0.0000000000000000e+00  1.7929303891133017e-01 -2.0639694231035004e-05 0.0000000000000000e+00  1.9033930302705146e-01 -1.4599134402806369e-05 0.0000000000000000e+00  1.9068531774713510e-01 -9.6847377395506429e-04 0.0000000000000000e+00  1.6730826293005283e-01 -8.3228711157227358e-06 0.0000000000000000e+00  1.9035501887528675e-01 -1.3737953651161621e-05 0.0000000000000000e+00  1.9034208464287741e-01 -1.4521902353010611e-05 0.0000000000000000e+00  1.9030691077363815e-01 -1.3212303534934104e-05 0.0000000000000000e+00  1.9034157266387966e-01 -4.9112166197082109e-06 0.0000000000000000e+00  1.7031660578899918e-01 -2.5249655029654346e-05 0.0000000000000000e+00  1.7526386778089334e-01 -6.9497603560672533e-06 0.0000000000000000e+00  2.2227416741986164e-01 1.4823520338326920e-01 0.0000000000000000e+00  2.6101819864681443e-02 5.2140014045319446e-03 0.0000000000000000e+00  1.6793934663504498e-01 -1.5761475661409016e-04 0.0000000000000000e+00  2.3300138094626086e-01 -1.0528129695589486e-02 0.0000000000000000e+00  1.8797979220635352e-01 -2.3985846670991301e-05 0.0000000000000000e+00  1.9034038303070211e-01 -7.6979007543678084e-06 0.0000000000000000e+00  1.9038875829258067e-01 -5.5014791657457976e-04 0.0000000000000000e+00  1.9031383154479417e-01 -5.3583073600985112e-06 0.0000000000000000e+00  1.7632494981998123e-01 -5.9137254060449841e-06 0.0000000000000000e+00  1.9031848397139339e-01 -5.9243954559602554e-05 0.0000000000000000e+00  1.9161575355620117e-01 -2.4079493901404763e-03 0.0000000000000000e+00  1.7266766581245505e-01 -1.9345564546127791e-05 0.0000000000000000e+00  1.9032386663111281e-01 -5.1851599331636876e-06 0.0000000000000000e+00  1.7106927734402277e-01 1.2923085240993935e-05 0.0000000000000000e+00  1.6153322082772104e-01 6.0193741750714319e-02 0.0000000000000000e+00  1.5839004925987188e-01 8.1698277167711539e-02 0.0000000000000000e+00  1.9511928916813720e-01 1.4567762841593772e-02 0.0000000000000000e+00  1.6352031915817422e-01 -3.7305235232416389e-04 0.0000000000000000e+00  1.9196252708549938e-01 -6.7088172025991082e-03 0.0000000000000000e+00  1.9072796733071495e-01 -7.2322485319787635e-04 0.0000000000000000e+00  3.7507339518597727e-01 2.8763027598146883e-02 0.0000000000000000e+00  1.9040579349651260e-01 -1.3775446629689516e-04 0.0000000000000000e+00  1.9038059741035440e-01 -2.1877406902101449e-04 0.0000000000000000e+00  3.3991847733163194e-01 1.4072844747893437e-01 0.0000000000000000e+00  3.0738254315083829e-01 3.2200988794141537e-02 0.0000000000000000e+00  2.3905898837867989e-01 7.1935659924544620e-02 0.0000000000000000e+00  1.9033932635724130e-01 5.1162426458724421e-06 0.0000000000000000e+00  1.8998632033702714e-01 -1.6590576941852503e-05 0.0000000000000000e+00  1.9034747647002592e-01 -1.8046303122653710e-05 0.0000000000000000e+00  2.2616787306962630e-01 -5.6849236470296008e-02 0.0000000000000000e+00  1.6147442038406157e-01 3.1649850615002771e-02 0.0000000000000000e+00  1.6468244601590931e-01 2.9886878880939423e-06 0.0000000000000000e+00  2.3780898224879132e-01 2.4608612545045420e-02 0.0000000000000000e+00  2.2448372925433141e-01 7.2503990508864899e-02 0.0000000000000000e+00  1.9021107572023646e-01 -8.2240799503130501e-05 0.0000000000000000e+00  1.7088133804484165e-01 -2.4532127435675980e-05 0.0000000000000000e+00  1.8297990411520099e-01 -8.4246717597069554e-04 0.0000000000000000e+00  4.5619499709968270e-01 1.2053221576014428e-02 0.0000000000000000e+00  1.8738399013892504e-01 -3.2247774532944487e-03 0.0000000000000000e+00  2.0493819168587366e-01 -8.0774511036555557e-03 0.0000000000000000e+00  1.9014281767888130e-01 -7.9502266106213490e-06 0.0000000000000000e+00  1.6712590892345053e-01 -2.9855425618180763e-03 0.0000000000000000e+00  1.9013007324131503e-01 -2.4506257224103869e-05 0.0000000000000000e+00  1.9035473321029422e-01 -6.8145113698073938e-05 0.0000000000000000e+00  1.8945600219449499e-01 -5.1722022008754279e-04 0.0000000000000000e+00  1.3760089967455835e-01 -3.4679931383997204e-03 0.0000000000000000e+00  1.4831938947063109e-01 -1.3835463748404165e-05 0.0000000000000000e+00  1.4768061668602514e-01 -1.4172836755229997e-04 0.0000000000000000e+00  1.7845362633284839e-01 -2.0536779938763145e-02 0.0000000000000000e+00  7.1628886045115497e-02 3.1193359394432497e-02 0.0000000000000000e+00  1.8985529433000831e-01 -5.3475739770053391e-06 0.0000000000000000e+00  1.5558883328943976e-01 7.4883739634159337e-06 0.0000000000000000e+00  3.9855418769313999e-01 -1.0213007024132988e-01 0.0000000000000000e+00  1.9030587130031712e-01 -5.7444942093727659e-06 0.0000000000000000e+00  1.9017437738069148e-01 -7.8134989212237620e-06 0.0000000000000000e+00  3.5785821332179099e-02 2.4593396691402874e-06 0.0000000000000000e+00  1.8225555411144939e-01 -8.2967758519428090e-03 0.0000000000000000e+00  1.6124896654924331e-01 4.6117242725369739e-02 0.0000000000000000e+00  1.9035297500904011e-01 -1.2969723706120522e-06 0.0000000000000000e+00  1.9005758371180545e-01 -1.4157909571510939e-05 0.0000000000000000e+00  1.4360535539993408e-01 -6.8695354531510082e-04 0.0000000000000000e+00  1.9439759774701601e-01 -3.5036165392436634e-03 0.0000000000000000e+00  3.7565409521326631e-01 4.0051499146923575e-02 0.0000000000000000e+00  1.6295014670178609e-01 2.9177420801420271e-05 0.0000000000000000e+00  1.4698646417310549e-01 1.6674369540037818e-05 0.0000000000000000e+00  1.5794736402100953e-01 -4.6976014122921410e-06 0.0000000000000000e+00  1.9426701330042116e-02 -3.1057832375955580e-02 0.0000000000000000e+00  3.3356412394065271e-01 -1.0260558498860524e-06 0.0000000000000000e+00  1.5427636585165636e-01 4.4640294821707423e-06 0.0000000000000000e+00  3.9290167331963022e-01 -1.3991062733748309e-02 0.0000000000000000e+00  1.6142286918087426e-01 2.3925262054890285e-05 0.0000000000000000e+00  1.9231223510090134e-01 -1.9790486393366962e-03 0.0000000000000000e+00  1.1852604542109101e-01 7.0442540260425320e-07 0.0000000000000000e+00  1.9032447015586926e-01 -1.6276558322109609e-05 0.0000000000000000e+00  1.5802706761992563e-01 -3.8403812565144061e-05 0.0000000000000000e+00  2.1733324116642969e-01 -1.5499328776662182e-06 0.0000000000000000e+00  1.5798375440399309e-01 -1.3566139185095847e-05 0.0000000000000000e+00  1.9010750228883894e-01 -5.9479928688170450e-05 0.0000000000000000e+00  1.9033366505236640e-01 -1.1644426283911691e-05 0.0000000000000000e+00  1.5392603408105002e-01 -6.8622791205809834e-05 0.0000000000000000e+00  1.3024328744784675e-01 -1.7774919479521272e-05 0.0000000000000000e+00  1.8921357464978494e-01 -2.0442575178101203e-04 0.0000000000000000e+00  1.2795107299166553e-01 -4.7609626820108538e-04 0.0000000000000000e+00  2.6034806693593510e-01 -2.5926711532606967e-02 0.0000000000000000e+00  2.0433262883931066e-01 -1.6434158091214009e-02 0.0000000000000000e+00  3.2368450511258978e-01 -9.0627070473236926e-02 0.0000000000000000e+00  1.4823500860510380e-01 -5.4292063341944253e-05 0.0000000000000000e+00  2.0687636393812164e-01 -3.3879568681706766e-02 0.0000000000000000e+00  1.8853939835991329e-01 -6.9359183938913519e-03 0.0000000000000000e+00  1.8962218813422690e-01 -1.0920147167165866e-05 0.0000000000000000e+00  1.8964658560218445e-01 -1.3948394751642174e-03 0.0000000000000000e+00  1.3015644609735025e-01 8.7618256673091049e-06 0.0000000000000000e+00  1.4715141936503048e-01 -1.2344389781