<?xml version="1.0"?>
<VTKFile type="UnstructuredGrid"  version="0.1"  >
<UnstructuredGrid>
<Piece  NumberOfPoints="1404" NumberOfCells="2604">
<Points>
<DataArray  type="Float64"  NumberOfComponents="3"  format="ascii">0 0.41 0  0 0 0  2.2 0 0  2.2 0.41 0  0.2353553390593274 0.2353553390593274 0  0.25 0.2 0  0.2353553390593274 0.1646446609406726 0  0.2 0.15 0  0.1646446609406726 0.1646446609406726 0  0.15 0.2 0  0.1646446609406726 0.2353553390593274 0  0.2 0.25 0  0.6923879532511287 0.188268343236509 0  0.7 0.15 0  0.6923879532511287 0.1117316567634909 0  0.6707106781186547 0.07928932188134523 0  0.6382683432365089 0.05761204674887133 0  0.6 0.04999999999999999 0  0.5617316567634909 0.05761204674887134 0  0.5292893218813453 0.07928932188134524 0  0.5076120467488713 0.111731656763491 0  0.5 0.15 0  0.5076120467488713 0.188268343236509 0  0.5292893218813453 0.2207106781186547 0  0.561731656763491 0.2423879532511287 0  0.6 0.25 0  0.6382683432365089 0.2423879532511287 0  0.6707106781186547 0.2207106781186547 0  1.1 0 0  0 0.205 0  1.1 0.41 0  0.55 0 0  0.55 0.41 0  0.275 0 0  0.8250000000000001 0 0  0.275 0.41 0  0.8250000000000001 0.41 0  0.6875 0 0  0.61875 0 0  1.65 0.41 0  1.65 0 0  1.375 0 0  1.375 0.41 0  1.925 0 0  1.925 0.41 0  1.5125 0.205 0  1.7875 0.205 0  0.9625000000000001 0.205 0  1.2375 0.205 0  2.2 0.205 0  1.99375 0.2152743902439024 0  0.4125 0.41 0  2.0625 0 0  2.0625 0.41 0  2.2 0.3075 0  1.7875 0.41 0  1.375 0.1486128048780488 0  1.5125 0 0  1.7875 0 0  1.5125 0.41 0  0.9625000000000001 0.41 0  0.4125 0 0  0.1375 0 0  0.1375 0.41 0  0.6875 0.41 0  0.9625000000000001 0 0  1.2375 0 0  1.1 0.1486128048780488 0  1.2375 0.41 0  1.65 0.1486128048780487 0  0.823495464168302 0.2603780552348366 0  0.3738707794507017 0.2720196349488618 0  0.3662291281331582 0.1311456406657909 0  1.676715909090909 0.2793064024390244 0  1.126715909090909 0.2793064024390244 0  1.348284090909091 0.2793064024390244 0  0.8287581077665108 0.1302150898054257 0  1.894702181800738 0.1282910975492754 0  2.092797818199262 0.1282910975492754 0  1.85625 0.3075 0  0 0.3075 0  0 0.1025 0  2.099172119769978 0.25625 0  0.4752414543992246 0.3180372603390748 0  1.99375 0.08395950269330846 0  1.459960956013612 0.3075 0  1.569025960719943 0.2986889805672169 0  1.03125 0.3278689922742084 0  1.959375 0.3126371951219512 0  1.749222215368287 0.1025 0  1.275777784631713 0.1025 0  0.9228016959331474 0.3075 0  1.000777784631713 0.1025 0  2.2 0.1025 0  1.225938124459196 0.3075 0  1.550777784631713 0.1025 0  1.44375 0.07430640243902442 0  1.16875 0.07430640243902439 0  0.7562500000000001 0.3358727844323386 0  0.89375 0 0  1.899250267340833 0.2229966846119207 0  0.61875 0.41 0  1.766482954545455 0.2934032012195123 0  1.046078563095834 0.2389031808701145 0  1.421109702350723 0.2261157654379721 0  0.07567171807980319 0.25625 0  0.2511897295290552 0.3235829392832554 0  0.07655002503762308 0.1488653460959645 0  0.1377245246847496 0.3206030474919778 0  0.6694099692696568 0.3242771941727899 0  0.9168971191497528 0.1295727156104653 0  0.7562500000000001 0 0  2.118919042110979 0.3422084711244843 0  2.13125 0 0  0.06875000000000001 0 0  1.30625 0.41 0  1.597888256393107 0.2173787389261347 0  0.34375 0.41 0  0.2493272016354703 0.08091360081773515 0  0.5588896233436766 0.3264056208677571 0  1.829299675393195 0.07400700849299596 0  0.1334079128307869 0.08523463035786674 0  1.71875 0.41 0  0.06875000000000001 0.41 0  1.16875 0.41 0  2.038220665644273 0.332420740103091 0  0.8810647413215221 0.2027360103977071 0  0.34375 0 0  0.7453891198966415 0.2471459041008237 0  0.42112093004955 0.1988123139090554 0  0.8314023090855964 0.3351170841770613 0  0.89375 0.41 0  0.7906250000000001 0.06615386481594063 0  1.452769549894695 0.1548122580621249 0  1.369219062229598 0.07430640243902442 0  1.30625 0 0  1.07420695807087 0.07430640243902439 0  1.720943423819132 0.1714577452753128 0  1.157188124459196 0.205 0  1.304056576180868 0.1714577452753128 0  1.67579304192913 0.07430640243902437 0  1.209670467133757 0.136210026696477 0  0.4312800784902823 0.08036147352247747 0  0.8723959680194693 0.07066860609690805 0  1.025335513626278 0.1700681449722324 0  0.7945632284247136 0.1940204203251442 0  0.378125 0.3452261501101892 0  0.3307109909790086 0.2037165635083759 0  0.3009701032039409 0.2702970083403109 0  0.20625 0.41 0  1.58125 0 0  0.4812500000000001 0 0  0.9838963872396855 0.2722244191167347 0  0.06772484939107212 0.3260067317374387 0  0.20625 0 0  1.58125 0.41 0  1.631724228912893 0.3381867502687533 0  1.825608881788174 0.14499488549201 0  1.85625 0 0  1.44375 0 0  1.44375 0.41 0  1.85625 0.41 0  2.13125 0.41 0  0.7562500000000001 0.41 0  0.4812500000000001 0.41 0  1.16875 0 0  1.03125 0.41 0  1.03125 0 0  1.71875 0 0  1.99375 0 0  1.99375 0.41 0  0.9408708167433545 0.0651989315768642 0  1.340625 0.3489494290853124 0  1.134375 0.3489494290853123 0  1.700180620188976 0.3438659752031281 0  0.29668452290037 0.1318471691375986 0  0.3175441051360096 0.06496934809856265 0  0.06509151636162461 0.08140814015999148 0  2.135782184673599 0.07126652247502523 0  1.668441847249787 0.2129203728327609 0  1.295782514339747 0.2378437748815763 0  1.409375 0.3520314716057996 0  2.129248544730567 0.1906135162504124 0  2.060771381434487 0.1989445750470348 0  2.013252586573865 0.1496169464686054 0  1.942766402200229 0.1734448904596831 0  1.895522487186454 0.06076163953489683 0  2.069553871656643 0.06605731020975725 0  0.4670911801404742 0.2498408582391372 0  0.7622743084658112 0.1264100838268133 0  1.274680914880868 0.3520219391081363 0  0.3148669572599245 0.3331753056385887 0  1.614713220494657 0.09473434380863296 0  1.72990325744076 0.2380068107952482 0  1.356580098625191 0.2120393231351682 0  2.034370752044885 0.2668681600792073 0  1.51768709249349 0.3426260931494756 0  1.561883724969884 0.1650446847858835 0  1.197344062229598 0.2523725417393646 0  1.804085235518364 0.3468178408964637 0  1.817887819205233 0.2589243285818559 0  1.905897727272727 0.3485060975609756 0  0.7296439733931823 0.06337466644369745 0  0.4250935971865949 0.1394919578475796 0  0.3773030136511669 0.05130372097998036 0  1.192836486056382 0.3562350748565544 0  1.1029124365364 0.226143510831178 0  1.28257088594801 0.2944411014911587 0  0.1905185804731426 0.06029880676029167 0  1.474860187679412 0.2504218616229368 0  1.406767003493824 0.2829282258560709 0  0.5209826960981064 0.2830664557824064 0  0.5131119502780163 0.3617405848213254 0  0.1948220106098172 0.3081993407644811 0  1.845656689180403 0.1998310418452388 0  2.144958525570388 0.2909790873294231 0  2.2 0.15375 0  0.8833025251326762 0.2625402923007629 0  0.171875 0.3653875762360952 0  1.57794966442982 0.3540357145964566 0  0.446875 0.366068291212731 0  0.4272051715206439 0.2891929346190664 0  1.508991196088596 0.1421783375065625 0  1.50436820029908 0.06143401634903343 0  1.223857000523521 0.08235548624535324 0  0.6137904613287555 0.3066826366281556 0  1.153316824384777 0.1289850171317838 0  0.9751573703656133 0.327632618473408 0  2.148922302309752 0.1258841779285271 0  0.9281250000000001 0.3643758685795699 0  1.621993280276081 0.2841214267927899 0  1.550118654119087 0.2461998729100966 0  1.327182649291491 0.1216967252533594 0  0.9939955742738924 0.04663549843168518 0  1.753125 0.04556020050186112 0  1.271875 0.04556020050186116 0  0.9734326767716519 0.1506854560854393 0  0.103125 0.3675775577080512 0  1.94956388244759 0.1180512551534177 0  1.949997712993411 0.04965831614304109 0  0.717433898748555 0.295596016333797 0  1.771961817615021 0.1530278789497521 0  1.909246823951428 0.2812757146784527 0  0 0.35875 0  1.050632804931928 0.1226269704412814 0  0.05695108326502596 0.2024009637347154 0  1.948575539857022 0.2445328248721197 0  1.697271520964565 0.1233917627620729 0  1.065625 0.3689344961371042 0  1.085849084308977 0.3170853572226867 0  0.1015495998772944 0.04226029099983852 0  1.577403511714593 0.05463601888079143 0  1.751571320346033 0.3651102912045228 0  2.2 0.35875 0  0.7441773632462837 0.1786786606458751 0  0 0.05125 0  1.466879772203159 0.3611261772912453 0  0.6282230348858767 0.3577675483994025 0  1.990280163552011 0.3564754268533217 0  1.17471064520912 0.2990917256188288 0  0 0.25625 0  2.2 0.25625 0  2.2 0.05125 0  0 0.15375 0  1.853978576207987 0.35875 0  1.515638456102889 0.2882700110184686 0  2.150453692751374 0.2387066338105111 0  1.323782677156475 0.04897634338873398 0  1.409375 0.03715320121951221 0  1.406484531114799 0.1087852750766809 0  1.134375 0.03715320121951219 0  0.721875 0.3729363922161693 0  0.7941695928236929 0.3696489254637395 0  0.7934827162619036 0.3013409431456604 0  1.627401732573545 0.04552157221025036 0  0.9352049974617431 0.2507047965699472 0  0.8763260682738339 0.3611103317460093 0  2.045405893604797 0.1105340662939892 0  1.255408269734577 0.1577307500159216 0  2.028125 0.03707597992059326 0  1.003030137506755 0.3689344961371042 0  1.248258025468107 0.2565907092181813 0  1.203125 0.03661323374043041 0  0.4800125512335631 0.0549472816999725 0  2.072662025974815 0.2975086504196739 0  0.240625 0.3729825336867542 0  1.113252391110535 0.10238286244357 0  1.071052763974265 0.1885202618768825 0  0.8738809401657862 0.3106483608284829 0  0.6786819423003397 0.2677558482644021 0  1.887722846421017 0.1760882698830035 0  1.472640588990488 0.1118278026240017 0  0.5843750000000001 0.41 0  1.865937103925594 0.2604137786483804 0  1.463913572748262 0.2030442564990043 0  1.376426316059077 0.3186741374914345 0  0.1038643885363755 0.2162701735320032 0  0.1769473813227781 0.1070849728467114 0  0.458787839809176 0.171541653775316 0  0.240625 0 0  0.04179569703428024 0.2877217852556549 0  0.1258346557601885 0.2699740073054968 0  1.722140693354707 0.282908100935778 0  0.41206179117512 0.2448172567039922 0  0.3702471778075604 0.2265217604228704 0  0.3714881805374215 0.1786967818665642 0  1.77397096061971 0.2481483237422926 0  2.105123889160691 0.03743885948498647 0  1.001138337938679 0.229719337663998 0  1.051242910646791 0.2854826559431138 0  1.395420985247586 0.18
[...]
<PointData  Vectors="f_37"> 
<DataArray  type="Float64"  Name="f_37"  NumberOfComponents="3" format="ascii">2.5336755226023479e-07 5.1728617579266205e-08 0.0000000000000000e+00  -4.4506358870327434e-06 -3.5626024535904242e-07 0.0000000000000000e+00  -6.7585497656149317e-07 4.3966892803776565e-10 0.0000000000000000e+00  -9.0217586529345311e-07 -6.7344676933015661e-12 0.0000000000000000e+00  -1.3730749663229900e-07 2.6080272266946465e-07 0.0000000000000000e+00  1.7338932564216761e-07 -2.7009129156813266e-07 0.0000000000000000e+00  2.4685003713725226e-07 6.4654803179460479e-08 0.0000000000000000e+00  -8.4656126432172848e-07 -2.4106145750587201e-07 0.0000000000000000e+00  -1.0185872278096221e-06 -1.7300262761287890e-07 0.0000000000000000e+00  1.7347889328428180e-07 -4.1625973415129314e-07 0.0000000000000000e+00  -9.9163924981484562e-07 -6.0381813721389496e-07 0.0000000000000000e+00  -1.2694461657560550e-06 -2.7436710257928981e-07 0.0000000000000000e+00  6.0500591760566773e-07 3.5497069209717049e-07 0.0000000000000000e+00  -5.4988775231059603e-07 -7.9961905491279502e-07 0.0000000000000000e+00  -5.6787276239794484e-07 -4.7244487822947602e-07 0.0000000000000000e+00  -2.2974388962830851e-06 -4.8333264555530161e-07 0.0000000000000000e+00  1.2947931317904442e-06 8.4164130458935740e-07 0.0000000000000000e+00  3.3991887392847819e-01 9.5050066281201731e-02 0.0000000000000000e+00  3.6458330970726267e-06 1.8842767556356455e-06 0.0000000000000000e+00  2.4399052587865454e-06 5.7945540199953172e-08 0.0000000000000000e+00  -1.6321257263197951e-06 1.3161391160517482e-08 0.0000000000000000e+00  -3.8420324622540747e-07 -3.6584381883731926e-07 0.0000000000000000e+00  -2.4533163275845027e-07 -9.0723302727284236e-07 0.0000000000000000e+00  -1.1243166096511974e-06 -2.0025545860146684e-06 0.0000000000000000e+00  -3.0096348767167337e-06 -1.1061912129364580e-06 0.0000000000000000e+00  -3.9583689972537060e-06 -3.3858916240543708e-07 0.0000000000000000e+00  -4.0983312062520034e-06 -4.2951457880609814e-07 0.0000000000000000e+00  1.6547800497249560e-08 9.3106845125716837e-08 0.0000000000000000e+00  -3.0436403111547391e-06 5.3334921170948352e-07 0.0000000000000000e+00  1.6583343647955101e-01 -4.6470244211550516e-07 0.0000000000000000e+00  1.6871862898489005e-06 5.3695085360261463e-07 0.0000000000000000e+00  3.8641399838478417e-06 1.9216564529283233e-06 0.0000000000000000e+00  -3.3929141768049835e-07 6.3801804030559197e-08 0.0000000000000000e+00  5.0965094906190288e-07 6.9817105883113394e-08 0.0000000000000000e+00  4.3422841948360819e-07 -1.6139655352868897e-07 0.0000000000000000e+00  -8.3482811930215335e-07 5.8880901653120425e-08 0.0000000000000000e+00  -1.5904377143685075e-06 -1.2611888004406271e-07 0.0000000000000000e+00  -2.7668183462666076e-06 -5.3350317914777966e-07 0.0000000000000000e+00  -9.6238585888825817e-06 -6.2636420475679610e-07 0.0000000000000000e+00  -1.0098290057144548e-06 -4.8693571511890930e-09 0.0000000000000000e+00  -1.2760539548506040e-06 -6.9111951026257111e-09 0.0000000000000000e+00  -4.4407145229955326e-07 -1.2735485971412955e-08 0.0000000000000000e+00  -8.9719235761479481e-07 -5.3566280459089834e-08 0.0000000000000000e+00  -5.1318265983359361e-07 -3.1312658267012718e-10 0.0000000000000000e+00  -6.8291264650285091e-08 -2.5059841068017887e-10 0.0000000000000000e+00  2.1632715238034478e-01 2.2057486815072799e-03 0.0000000000000000e+00  2.1632843033916538e-01 2.0513315525591430e-04 0.0000000000000000e+00  2.3114578299387603e-01 -5.5635727459677126e-02 0.0000000000000000e+00  2.4029236667539391e-01 -1.6919450811170904e-02 0.0000000000000000e+00  2.1635099531739796e-01 -2.4900681259092788e-06 0.0000000000000000e+00  2.1620024518885622e-01 2.0040792256904515e-05 0.0000000000000000e+00  3.3830050943605822e-07 -2.6603705969841865e-08 0.0000000000000000e+00  1.7027002883952641e-07 5.0692266522184459e-10 0.0000000000000000e+00  -5.8281899389073511e-07 7.5553539097906896e-10 0.0000000000000000e+00  1.8986611389422836e-01 -5.9911155193550247e-06 0.0000000000000000e+00  -8.5176819334072151e-07 -1.6567859831441790e-09 0.0000000000000000e+00  2.1336195854266654e-01 2.1439721017897577e-03 0.0000000000000000e+00  -1.2205461798292466e-06 -1.7137680637833450e-08 0.0000000000000000e+00  -1.0477179504681143e-06 -1.6437009982684168e-09 0.0000000000000000e+00  -7.1745350294121518e-07 -1.7156072392361022e-08 0.0000000000000000e+00  -1.8084098007259690e-07 -1.7332686434436703e-08 0.0000000000000000e+00  -4.7341005831145550e-07 -9.2527719602440345e-08 0.0000000000000000e+00  -7.9916655530546033e-07 -7.8604643544808756e-08 0.0000000000000000e+00  -4.6764929156642258e-07 -1.0858229286104330e-07 0.0000000000000000e+00  -2.3341551256089953e-06 1.8419170407771401e-08 0.0000000000000000e+00  2.9968295686067834e-06 -6.2861711663582363e-07 0.0000000000000000e+00  -6.7990325991439241e-07 2.8484128048570911e-07 0.0000000000000000e+00  1.8151312814514289e-01 -9.4680640638546518e-02 0.0000000000000000e+00  -9.0762887474829286e-07 -1.8400278899241256e-07 0.0000000000000000e+00  2.1153248200822516e-01 6.6236811341245422e-04 0.0000000000000000e+00  2.8074734460071388e-01 -3.9029427952078359e-02 0.0000000000000000e+00  1.0499157946105289e-01 1.6171237524604026e-03 0.0000000000000000e+00  3.0743184524387879e-01 1.0928923016959667e-01 0.0000000000000000e+00  2.0542611608805517e-01 4.6145053164104165e-04 0.0000000000000000e+00  2.6322679533171195e-01 -4.4167367405096698e-02 0.0000000000000000e+00  2.0294921408802563e-01 6.9093666935381038e-03 0.0000000000000000e+00  6.0177159387228146e-02 6.5315091150834614e-02 0.0000000000000000e+00  2.0482851566347079e-01 4.8801393767158504e-05 0.0000000000000000e+00  2.0477111338232359e-01 1.0508603037115484e-05 0.0000000000000000e+00  1.8980510406711604e-01 4.6474248409530815e-05 0.0000000000000000e+00  7.5234908450656834e-02 1.0221276836825793e-08 0.0000000000000000e+00  2.7319256200883119e-01 7.1575237745909007e-09 0.0000000000000000e+00  2.1226680569947640e-01 2.3157062918944729e-06 0.0000000000000000e+00  2.3531594799255226e-01 7.1701398137523201e-02 0.0000000000000000e+00  1.7234308141201746e-01 8.5754780380916317e-06 0.0000000000000000e+00  1.8707347726834142e-01 2.4254595885322980e-03 0.0000000000000000e+00  1.9495631521802831e-01 1.0471099343900031e-03 0.0000000000000000e+00  2.3652173046714878e-01 -4.5024557720612840e-02 0.0000000000000000e+00  1.8565658596324039e-01 7.6902365351220055e-06 0.0000000000000000e+00  1.9004468701622551e-01 1.6872463161006902e-04 0.0000000000000000e+00  1.8950705321246983e-01 -8.4736706581608947e-03 0.0000000000000000e+00  3.9390801106855389e-01 -7.2395374048050659e-02 0.0000000000000000e+00  3.8692769143253883e-02 -2.3510972818068156e-02 0.0000000000000000e+00  1.8982587254732908e-01 2.5307920211497251e-06 0.0000000000000000e+00  1.8024871824394356e-01 1.0020597371303647e-02 0.0000000000000000e+00  1.9113709917024529e-01 1.1440951704633951e-03 0.0000000000000000e+00  1.6402519254857209e-01 1.6306851681984304e-03 0.0000000000000000e+00  1.2587430587865234e-01 -2.9623316793141865e-02 0.0000000000000000e+00  4.3398879061384055e-01 -3.8746241327300965e-02 0.0000000000000000e+00  2.1299301081009507e-06 -5.4793583534738637e-07 0.0000000000000000e+00  2.1592288459705508e-01 5.8385546518690150e-05 0.0000000000000000e+00  -9.4755127648380299e-07 2.3067113518257748e-07 0.0000000000000000e+00  1.9898888722922606e-01 1.7483569552852158e-04 0.0000000000000000e+00  3.4277833836462551e-01 -1.1478124152945578e-01 0.0000000000000000e+00  2.1562582986612253e-01 3.7953718753925446e-03 0.0000000000000000e+00  1.2571121285194151e-01 7.1603327447860049e-02 0.0000000000000000e+00  2.3138381387607124e-01 1.3735641372273042e-02 0.0000000000000000e+00  2.0869970543044075e-01 2.4750646134695228e-02 0.0000000000000000e+00  1.4774519944168563e-01 7.3808865028147305e-02 0.0000000000000000e+00  4.6351776412867091e-01 -1.0594131999426635e-02 0.0000000000000000e+00  5.3938508484114321e-02 2.7973007084430995e-02 0.0000000000000000e+00  -1.7159841851692844e-07 -1.7176113201307837e-07 0.0000000000000000e+00  1.5131385377204737e-01 -1.7581288534632380e-06 0.0000000000000000e+00  -1.7031814826274526e-06 -2.2267493744436580e-09 0.0000000000000000e+00  -1.2735992695321679e-06 5.3986954065857289e-09 0.0000000000000000e+00  -1.2814181655012839e-06 -1.1689351779695575e-07 0.0000000000000000e+00  2.1599152013144626e-01 1.1663380875868820e-03 0.0000000000000000e+00  -1.6719309925069442e-06 4.4262738520442791e-08 0.0000000000000000e+00  4.0331511971386874e-01 4.3238005568229730e-02 0.0000000000000000e+00  3.7589357439898741e-01 8.1293794711820216e-02 0.0000000000000000e+00  1.6016975869225078e-01 3.5271671298637800e-05 0.0000000000000000e+00  3.4340271575947079e-01 1.3482609319859692e-02 0.0000000000000000e+00  -1.0623468326639942e-06 -3.5102887296205526e-09 0.0000000000000000e+00  -1.4559373500065668e-07 -2.3707007142482043e-08 0.0000000000000000e+00  9.0821723504997790e-07 4.5317612874743873e-08 0.0000000000000000e+00  1.6473369093012394e-01 -2.7610586907307899e-06 0.0000000000000000e+00  1.3987937073431042e-01 8.2733804542703526e-03 0.0000000000000000e+00  -2.9985132947083012e-07 -5.7563695517835403e-08 0.0000000000000000e+00  1.4275388545325624e-01 -2.1673644326201405e-02 0.0000000000000000e+00  1.6411592779995909e-01 1.5334914928533103e-01 0.0000000000000000e+00  3.9950894712381030e-01 -4.6181647690567984e-02 0.0000000000000000e+00  1.6137081046924637e-06 -2.0284179536688132e-07 0.0000000000000000e+00  9.3939656691397283e-02 5.1912890243530088e-02 0.0000000000000000e+00  2.1377377570418435e-01 2.7646266757595200e-03 0.0000000000000000e+00  1.6575193254099124e-01 1.4965301069558529e-03 0.0000000000000000e+00  6.1032949944344620e-08 5.8458069929454830e-08 0.0000000000000000e+00  5.5859444022586809e-02 -3.7732911357233827e-02 0.0000000000000000e+00  2.1488253223709738e-01 3.7072872806847705e-04 0.0000000000000000e+00  2.7312342448523202e-01 -6.8807490920022737e-02 0.0000000000000000e+00  2.1997700473358703e-01 -4.1269614057258637e-03 0.0000000000000000e+00  1.6088585399991573e-01 2.4286197326254258e-04 0.0000000000000000e+00  2.0181866252177513e-01 -4.0068171349091776e-02 0.0000000000000000e+00  2.3335626138522761e-01 2.6209051706580049e-02 0.0000000000000000e+00  3.1672101461086448e-02 2.5549451474140693e-02 0.0000000000000000e+00  1.8635913302123364e-01 -8.3401824234343280e-02 0.0000000000000000e+00  3.7249798956210577e-02 3.1514571144677601e-02 0.0000000000000000e+00  2.0929505068628279e-01 7.8615666020995997e-03 0.0000000000000000e+00  3.8191717586481572e-02 1.3430539737725216e-02 0.0000000000000000e+00  1.0329771184283951e-01 -2.2162616073924724e-02 0.0000000000000000e+00  -8.9782912373881187e-07 -1.3762107566486172e-07 0.0000000000000000e+00  -5.1686313983353292e-07 -9.8400008320584262e-09 0.0000000000000000e+00  -2.2826564196649605e-07 3.0864952398519664e-07 0.0000000000000000e+00  3.8112261246251600e-01 -9.9800129978777519e-02 0.0000000000000000e+00  7.8099659031951874e-02 3.1583723804392519e-02 0.0000000000000000e+00  -2.1451849821118903e-06 -1.0898425594853435e-07 0.0000000000000000e+00  -7.6381954428837137e-07 -8.2440000050785375e-09 0.0000000000000000e+00  1.5644419995680026e-01 3.4811328467530752e-04 0.0000000000000000e+00  2.1032754198301309e-01 1.1208669101154122e-04 0.0000000000000000e+00  -7.2943306851834981e-07 -5.2505702339313065e-10 0.0000000000000000e+00  -6.7971632373795665e-07 -3.1110961224650135e-08 0.0000000000000000e+00  -1.1478447820553308e-06 -3.7218348076510674e-08 0.0000000000000000e+00  -1.5684578957434967e-07 -1.2845475931130996e-10 0.0000000000000000e+00  -1.0494558673672500e-07 -1.8534750512844780e-10 0.0000000000000000e+00  3.8836092009928271e-07 -2.5677692458541937e-07 0.0000000000000000e+00  -2.0206712127864326e-06 -2.5486197531339156e-07 0.0000000000000000e+00  -3.3346563763334012e-06 6.8042147128439792e-07 0.0000000000000000e+00  7.0071389247314351e-07 2.9673839409414892e-07 0.0000000000000000e+00  9.0716626268619546e-07 -2.7661108569811545e-07 0.0000000000000000e+00  1.5040686210904557e-07 -2.2477825716361967e-09 0.0000000000000000e+00  -9.4636729982817706e-07 6.8544962179673018e-10 0.0000000000000000e+00  -3.2520362878775187e-07 -3.1094784168388639e-10 0.0000000000000000e+00  4.1689786108431463e-03 8.9502792707128378e-03 0.0000000000000000e+00  1.3131334121770136e-01 4.0095347249663529e-03 0.0000000000000000e+00  1.1548419826680406e-01 -4.2848611639497306e-03 0.0000000000000000e+00  1.4852686258625419e-01 1.5495664446776001e-04 0.0000000000000000e+00  2.9292541946058842e-01 7.7111374453648754e-02 0.0000000000000000e+00  3.3512186014122924e-01 5.4653624154737609e-02 0.0000000000000000e+00  3.1535448174489789e-01 2.6465095807878092e-02 0.0000000000000000e+00  1.5630315244097925e-01 1.1256002531745008e-05 0.0000000000000000e+00  2.1619728198189911e-01 6.4022639342886428e-04 0.0000000000000000e+00  2.2232889452504498e-01 4.6977424542383921e-03 0.0000000000000000e+00  1.3051434234235948e-01 1.9569405906628124e-03 0.0000000000000000e+00  2.1608614922396238e-01 1.8742844903773393e-06 0.0000000000000000e+00  2.1628891563585767e-01 5.5590375955833801e-06 0.0000000000000000e+00  2.1137484374468588e-01 8.1842099019015359e-06 0.0000000000000000e+00  2.1498968655115466e-01 2.8649324065591181e-05 0.0000000000000000e+00  1.4036140323558402e-01 8.4288968411906262e-06 0.0000000000000000e+00  1.4868782899437499e-01 1.2386805175634753e-05 0.0000000000000000e+00  2.0707621365584611e-01 1.9619106826795354e-01 0.0000000000000000e+00  4.4408031310590984e-02 6.6416750157739249e-02 0.0000000000000000e+00  1.1857847018571567e-01 6.2823137664646386e-03 0.0000000000000000e+00  2.1871841370943843e-01 -5.2639856000972433e-03 0.0000000000000000e+00  1.8409734696654126e-01 5.9862236719121129e-04 0.0000000000000000e+00  2.1473655648159909e-01 3.4225868511365750e-04 0.0000000000000000e+00  2.1863386243907840e-01 3.7263386105603484e-03 0.0000000000000000e+00  2.0985242587332600e-01 1.1192453898859225e-05 0.0000000000000000e+00  1.4874003892124638e-01 9.0795585716739230e-04 0.0000000000000000e+00  2.1455888458766220e-01 1.4777357228353521e-03 0.0000000000000000e+00  2.4841973255147601e-01 -1.4956226278356768e-02 0.0000000000000000e+00  1.4415739894898463e-01 3.9077648089618747e-05 0.0000000000000000e+00  2.1164707822759093e-01 1.2766941170909438e-04 0.0000000000000000e+00  1.4150893080482330e-01 1.0066335565535592e-05 0.0000000000000000e+00  1.5510132335486812e-01 8.3126964431810960e-02 0.0000000000000000e+00  2.4946576156073799e-01 1.3351661394658706e-01 0.0000000000000000e+00  2.1520027446657367e-01 3.1725482708485388e-02 0.0000000000000000e+00  9.9146713059681230e-02 4.7431768761405368e-03 0.0000000000000000e+00  3.1153238560133900e-01 -9.9479027956629593e-02 0.0000000000000000e+00  1.9321224754900593e-01 1.0706405912974185e-02 0.0000000000000000e+00  3.9196491818478379e-01 1.8364660371662175e-02 0.0000000000000000e+00  2.1223119053403205e-01 2.7992425705442793e-03 0.0000000000000000e+00  2.0149116113112542e-01 4.3202514038278694e-03 0.0000000000000000e+00  3.4840357786507103e-01 1.9034139586534105e-01 0.0000000000000000e+00  2.7359834143871314e-01 3.6074319060834123e-02 0.0000000000000000e+00  2.3204374927597265e-01 7.1511368158673067e-02 0.0000000000000000e+00  2.1629912300091761e-01 1.1326164705854371e-04 0.0000000000000000e+00  2.0051340295496775e-01 -1.2252918695178314e-05 0.0000000000000000e+00  2.1225585002588421e-01 2.2044054867952041e-06 0.0000000000000000e+00  3.3714346498760722e-01 -5.6848864609415850e-02 0.0000000000000000e+00  1.2575259868614025e-01 2.5081148558563474e-02 0.0000000000000000e+00  1.3111336939638413e-01 4.1015141388772518e-04 0.0000000000000000e+00  2.0753367728725530e-01 2.1034425201958029e-02 0.0000000000000000e+00  1.5472018490982903e-01 4.7229740237869459e-02 0.0000000000000000e+00  2.1070633500214803e-01 2.0041742982290470e-03 0.0000000000000000e+00  1.4366421189397116e-01 8.8790451490620146e-04 0.0000000000000000e+00  1.6016865919542825e-01 -1.7579457764197864e-02 0.0000000000000000e+00  4.7059690635925794e-01 4.7690040755734270e-02 0.0000000000000000e+00  1.7536046647039244e-01 -6.7935828898763637e-02 0.0000000000000000e+00  2.9866448022124265e-01 -5.5449568879106743e-02 0.0000000000000000e+00  2.0376974856018901e-01 1.2703987948003837e-05 0.0000000000000000e+00  2.0084895519895227e-01 -2.1393569238526186e-02 0.0000000000000000e+00  2.0313997653930915e-01 7.3223666812792510e-04 0.0000000000000000e+00  2.1326664327563299e-01 1.6138252551139373e-03 0.0000000000000000e+00  2.0441779440893545e-01 -1.2466156265698485e-03 0.0000000000000000e+00  -4.8272063539538876e-03 -4.3356960901991762e-03 0.0000000000000000e+00  1.1276162707968991e-01 5.3704508248477768e-05 0.0000000000000000e+00  1.1697602491580790e-01 -2.1698043710705701e-03 0.0000000000000000e+00  1.0276061257959132e-01 -2.2655576663404349e-02 0.0000000000000000e+00  6.3171438351951895e-02 1.7730003591150144e-02 0.0000000000000000e+00  1.9992631083082776e-01 1.7294340919985104e-05 0.0000000000000000e+00  1.2064102848905885e-01 2.2044177124346146e-06 0.0000000000000000e+00  4.0567936781233105e-01 -3.9734761219299544e-02 0.0000000000000000e+00  2.1219474978724520e-01 2.0685212269078049e-04 0.0000000000000000e+00  2.0494213641691966e-01 2.7909598161911428e-05 0.0000000000000000e+00  3.5785432312787802e-02 5.9442913405896045e-08 0.0000000000000000e+00  9.6447718892345546e-02 -6.5868056815335987e-02 0.0000000000000000e+00  1.5900781610280657e-01 4.2375681465669328e-02 0.0000000000000000e+00  2.1410249983387830e-01 3.4965375508519605e-05 0.0000000000000000e+00  2.0295592130710255e-01 3.6448006715129362e-04 0.0000000000000000e+00  9.0331585254263283e-02 -8.9178734486225434e-03 0.0000000000000000e+00  2.1658820247837712e-01 -3.6623756750083239e-02 0.0000000000000000e+00  3.8074013218081554e-01 3.5776881072188085e-02 0.0000000000000000e+00  1.3091486840611033e-01 4.1161911346625099e-04 0.0000000000000000e+00  1.1114557327316681e-01 4.9243809594784891e-05 0.0000000000000000e+00  1.2357626750297167e-01 -5.5046633551115824e-06 0.0000000000000000e+00  -2.7799510646032122e-03 2.6209256488367434e-02 0.0000000000000000e+00  3.3356381860684697e-01 2.9913548934489067e-08 0.0000000000000000e+00  1.1615738181280119e-01 9.1397156558986820e-04 0.0000000000000000e+00  3.9325800613704476e-01 5.8126882510812876e-03 0.0000000000000000e+00  1.2780459963932250e-01 1.1238105432388825e-06 0.0000000000000000e+00  2.0228191856006314e-01 -4.7633384290573389e-03 0.0000000000000000e+00  1.1852651633828487e-01 -6.7590723546560715e-08 0.0000000000000000e+00  2.1227418875709028e-01 8.1857295768483035e-06 0.0000000000000000e+00  1.2358509720399501e-01 1.1104521923201954e-05 0.0000000000000000e+00  2.1733316493304858e-01 -4.6645562986458950e-08 0.0000000000000000e+00  1.2358878888175510e-01 1.0975976657741171e-05 0.0000000000000000e+00  2.0035286542584055e-01 1.7814991936908661e-03 0.0000000000000000e+00  2.1478327816311976e-01 3.9864437573482541e-06 0.0000000000000000e+00  1.2566122621676551e-01 1.8802464996643941e-04 0.0000000000000000e+00  9.9248965622862922e-02 7.2124058237281528e-04 0.0000000000000000e+00  1.9764949332981988e-01 2.3951892983191136e-03 0.0000000000000000e+00  5.7600854220747351e-02 -1.2346586120145383e-02 0.0000000000000000e+00  3.1752221267267122e-01 -1.6995334624032878e-02 0.0000000000000000e+00  2.8647688660992016e-01 -2.0609076173794538e-02 0.0000000000000000e+00  4.1752486222714041e-01 -5.1757471146707493e-02 0.0000000000000000e+00  1.1314719618531269e-01 1.9040238244075707e-04 0.0000000000000000e+00  3.3895976270400996e-01 -7.4517377954187530e-02 0.0000000000000000e+00  2.6325262484810724e-01 -2.6177438916676038e-02 0.0000000000000000e+00  1.9551207698868389e-01 1.4257643049521127e-05 0.0000000000000000e+00  2.1883283364148329e-01 -1.8982082334212468e-02 0.0000000000000000e+00  9.4849833271234155e-02 7.2390372987377319e-06 0.0000000000000000e+00  1.2428581514546697e-01 -1.3304533925809263e-02 0.0000000000000000e+00  2.2567759349819069e-01 4.1786548867750