<?xml version="1.0"?>
<VTKFile type="UnstructuredGrid"  version="0.1"  >
<UnstructuredGrid>
<Piece  NumberOfPoints="1404" NumberOfCells="2604">
<Points>
<DataArray  type="Float64"  NumberOfComponents="3"  format="ascii">0 0.41 0  0 0 0  2.2 0 0  2.2 0.41 0  0.2353553390593274 0.2353553390593274 0  0.25 0.2 0  0.2353553390593274 0.1646446609406726 0  0.2 0.15 0  0.1646446609406726 0.1646446609406726 0  0.15 0.2 0  0.1646446609406726 0.2353553390593274 0  0.2 0.25 0  0.6923879532511287 0.188268343236509 0  0.7 0.15 0  0.6923879532511287 0.1117316567634909 0  0.6707106781186547 0.07928932188134523 0  0.6382683432365089 0.05761204674887133 0  0.6 0.04999999999999999 0  0.5617316567634909 0.05761204674887134 0  0.5292893218813453 0.07928932188134524 0  0.5076120467488713 0.111731656763491 0  0.5 0.15 0  0.5076120467488713 0.188268343236509 0  0.5292893218813453 0.2207106781186547 0  0.561731656763491 0.2423879532511287 0  0.6 0.25 0  0.6382683432365089 0.2423879532511287 0  0.6707106781186547 0.2207106781186547 0  1.1 0 0  0 0.205 0  1.1 0.41 0  0.55 0 0  0.55 0.41 0  0.275 0 0  0.8250000000000001 0 0  0.275 0.41 0  0.8250000000000001 0.41 0  0.6875 0 0  0.61875 0 0  1.65 0.41 0  1.65 0 0  1.375 0 0  1.375 0.41 0  1.925 0 0  1.925 0.41 0  1.5125 0.205 0  1.7875 0.205 0  0.9625000000000001 0.205 0  1.2375 0.205 0  2.2 0.205 0  1.99375 0.2152743902439024 0  0.4125 0.41 0  2.0625 0 0  2.0625 0.41 0  2.2 0.3075 0  1.7875 0.41 0  1.375 0.1486128048780488 0  1.5125 0 0  1.7875 0 0  1.5125 0.41 0  0.9625000000000001 0.41 0  0.4125 0 0  0.1375 0 0  0.1375 0.41 0  0.6875 0.41 0  0.9625000000000001 0 0  1.2375 0 0  1.1 0.1486128048780488 0  1.2375 0.41 0  1.65 0.1486128048780487 0  0.823495464168302 0.2603780552348366 0  0.3738707794507017 0.2720196349488618 0  0.3662291281331582 0.1311456406657909 0  1.676715909090909 0.2793064024390244 0  1.126715909090909 0.2793064024390244 0  1.348284090909091 0.2793064024390244 0  0.8287581077665108 0.1302150898054257 0  1.894702181800738 0.1282910975492754 0  2.092797818199262 0.1282910975492754 0  1.85625 0.3075 0  0 0.3075 0  0 0.1025 0  2.099172119769978 0.25625 0  0.4752414543992246 0.3180372603390748 0  1.99375 0.08395950269330846 0  1.459960956013612 0.3075 0  1.569025960719943 0.2986889805672169 0  1.03125 0.3278689922742084 0  1.959375 0.3126371951219512 0  1.749222215368287 0.1025 0  1.275777784631713 0.1025 0  0.9228016959331474 0.3075 0  1.000777784631713 0.1025 0  2.2 0.1025 0  1.225938124459196 0.3075 0  1.550777784631713 0.1025 0  1.44375 0.07430640243902442 0  1.16875 0.07430640243902439 0  0.7562500000000001 0.3358727844323386 0  0.89375 0 0  1.899250267340833 0.2229966846119207 0  0.61875 0.41 0  1.766482954545455 0.2934032012195123 0  1.046078563095834 0.2389031808701145 0  1.421109702350723 0.2261157654379721 0  0.07567171807980319 0.25625 0  0.2511897295290552 0.3235829392832554 0  0.07655002503762308 0.1488653460959645 0  0.1377245246847496 0.3206030474919778 0  0.6694099692696568 0.3242771941727899 0  0.9168971191497528 0.1295727156104653 0  0.7562500000000001 0 0  2.118919042110979 0.3422084711244843 0  2.13125 0 0  0.06875000000000001 0 0  1.30625 0.41 0  1.597888256393107 0.2173787389261347 0  0.34375 0.41 0  0.2493272016354703 0.08091360081773515 0  0.5588896233436766 0.3264056208677571 0  1.829299675393195 0.07400700849299596 0  0.1334079128307869 0.08523463035786674 0  1.71875 0.41 0  0.06875000000000001 0.41 0  1.16875 0.41 0  2.038220665644273 0.332420740103091 0  0.8810647413215221 0.2027360103977071 0  0.34375 0 0  0.7453891198966415 0.2471459041008237 0  0.42112093004955 0.1988123139090554 0  0.8314023090855964 0.3351170841770613 0  0.89375 0.41 0  0.7906250000000001 0.06615386481594063 0  1.452769549894695 0.1548122580621249 0  1.369219062229598 0.07430640243902442 0  1.30625 0 0  1.07420695807087 0.07430640243902439 0  1.720943423819132 0.1714577452753128 0  1.157188124459196 0.205 0  1.304056576180868 0.1714577452753128 0  1.67579304192913 0.07430640243902437 0  1.209670467133757 0.136210026696477 0  0.4312800784902823 0.08036147352247747 0  0.8723959680194693 0.07066860609690805 0  1.025335513626278 0.1700681449722324 0  0.7945632284247136 0.1940204203251442 0  0.378125 0.3452261501101892 0  0.3307109909790086 0.2037165635083759 0  0.3009701032039409 0.2702970083403109 0  0.20625 0.41 0  1.58125 0 0  0.4812500000000001 0 0  0.9838963872396855 0.2722244191167347 0  0.06772484939107212 0.3260067317374387 0  0.20625 0 0  1.58125 0.41 0  1.631724228912893 0.3381867502687533 0  1.825608881788174 0.14499488549201 0  1.85625 0 0  1.44375 0 0  1.44375 0.41 0  1.85625 0.41 0  2.13125 0.41 0  0.7562500000000001 0.41 0  0.4812500000000001 0.41 0  1.16875 0 0  1.03125 0.41 0  1.03125 0 0  1.71875 0 0  1.99375 0 0  1.99375 0.41 0  0.9408708167433545 0.0651989315768642 0  1.340625 0.3489494290853124 0  1.134375 0.3489494290853123 0  1.700180620188976 0.3438659752031281 0  0.29668452290037 0.1318471691375986 0  0.3175441051360096 0.06496934809856265 0  0.06509151636162461 0.08140814015999148 0  2.135782184673599 0.07126652247502523 0  1.668441847249787 0.2129203728327609 0  1.295782514339747 0.2378437748815763 0  1.409375 0.3520314716057996 0  2.129248544730567 0.1906135162504124 0  2.060771381434487 0.1989445750470348 0  2.013252586573865 0.1496169464686054 0  1.942766402200229 0.1734448904596831 0  1.895522487186454 0.06076163953489683 0  2.069553871656643 0.06605731020975725 0  0.4670911801404742 0.2498408582391372 0  0.7622743084658112 0.1264100838268133 0  1.274680914880868 0.3520219391081363 0  0.3148669572599245 0.3331753056385887 0  1.614713220494657 0.09473434380863296 0  1.72990325744076 0.2380068107952482 0  1.356580098625191 0.2120393231351682 0  2.034370752044885 0.2668681600792073 0  1.51768709249349 0.3426260931494756 0  1.561883724969884 0.1650446847858835 0  1.197344062229598 0.2523725417393646 0  1.804085235518364 0.3468178408964637 0  1.817887819205233 0.2589243285818559 0  1.905897727272727 0.3485060975609756 0  0.7296439733931823 0.06337466644369745 0  0.4250935971865949 0.1394919578475796 0  0.3773030136511669 0.05130372097998036 0  1.192836486056382 0.3562350748565544 0  1.1029124365364 0.226143510831178 0  1.28257088594801 0.2944411014911587 0  0.1905185804731426 0.06029880676029167 0  1.474860187679412 0.2504218616229368 0  1.406767003493824 0.2829282258560709 0  0.5209826960981064 0.2830664557824064 0  0.5131119502780163 0.3617405848213254 0  0.1948220106098172 0.3081993407644811 0  1.845656689180403 0.1998310418452388 0  2.144958525570388 0.2909790873294231 0  2.2 0.15375 0  0.8833025251326762 0.2625402923007629 0  0.171875 0.3653875762360952 0  1.57794966442982 0.3540357145964566 0  0.446875 0.366068291212731 0  0.4272051715206439 0.2891929346190664 0  1.508991196088596 0.1421783375065625 0  1.50436820029908 0.06143401634903343 0  1.223857000523521 0.08235548624535324 0  0.6137904613287555 0.3066826366281556 0  1.153316824384777 0.1289850171317838 0  0.9751573703656133 0.327632618473408 0  2.148922302309752 0.1258841779285271 0  0.9281250000000001 0.3643758685795699 0  1.621993280276081 0.2841214267927899 0  1.550118654119087 0.2461998729100966 0  1.327182649291491 0.1216967252533594 0  0.9939955742738924 0.04663549843168518 0  1.753125 0.04556020050186112 0  1.271875 0.04556020050186116 0  0.9734326767716519 0.1506854560854393 0  0.103125 0.3675775577080512 0  1.94956388244759 0.1180512551534177 0  1.949997712993411 0.04965831614304109 0  0.717433898748555 0.295596016333797 0  1.771961817615021 0.1530278789497521 0  1.909246823951428 0.2812757146784527 0  0 0.35875 0  1.050632804931928 0.1226269704412814 0  0.05695108326502596 0.2024009637347154 0  1.948575539857022 0.2445328248721197 0  1.697271520964565 0.1233917627620729 0  1.065625 0.3689344961371042 0  1.085849084308977 0.3170853572226867 0  0.1015495998772944 0.04226029099983852 0  1.577403511714593 0.05463601888079143 0  1.751571320346033 0.3651102912045228 0  2.2 0.35875 0  0.7441773632462837 0.1786786606458751 0  0 0.05125 0  1.466879772203159 0.3611261772912453 0  0.6282230348858767 0.3577675483994025 0  1.990280163552011 0.3564754268533217 0  1.17471064520912 0.2990917256188288 0  0 0.25625 0  2.2 0.25625 0  2.2 0.05125 0  0 0.15375 0  1.853978576207987 0.35875 0  1.515638456102889 0.2882700110184686 0  2.150453692751374 0.2387066338105111 0  1.323782677156475 0.04897634338873398 0  1.409375 0.03715320121951221 0  1.406484531114799 0.1087852750766809 0  1.134375 0.03715320121951219 0  0.721875 0.3729363922161693 0  0.7941695928236929 0.3696489254637395 0  0.7934827162619036 0.3013409431456604 0  1.627401732573545 0.04552157221025036 0  0.9352049974617431 0.2507047965699472 0  0.8763260682738339 0.3611103317460093 0  2.045405893604797 0.1105340662939892 0  1.255408269734577 0.1577307500159216 0  2.028125 0.03707597992059326 0  1.003030137506755 0.3689344961371042 0  1.248258025468107 0.2565907092181813 0  1.203125 0.03661323374043041 0  0.4800125512335631 0.0549472816999725 0  2.072662025974815 0.2975086504196739 0  0.240625 0.3729825336867542 0  1.113252391110535 0.10238286244357 0  1.071052763974265 0.1885202618768825 0  0.8738809401657862 0.3106483608284829 0  0.6786819423003397 0.2677558482644021 0  1.887722846421017 0.1760882698830035 0  1.472640588990488 0.1118278026240017 0  0.5843750000000001 0.41 0  1.865937103925594 0.2604137786483804 0  1.463913572748262 0.2030442564990043 0  1.376426316059077 0.3186741374914345 0  0.1038643885363755 0.2162701735320032 0  0.1769473813227781 0.1070849728467114 0  0.458787839809176 0.171541653775316 0  0.240625 0 0  0.04179569703428024 0.2877217852556549 0  0.1258346557601885 0.2699740073054968 0  1.722140693354707 0.282908100935778 0  0.41206179117512 0.2448172567039922 0  0.3702471778075604 0.2265217604228704 0  0.3714881805374215 0.1786967818665642 0  1.77397096061971 0.2481483237422926 0  2.105123889160691 0.03743885948498647 0  1.001138337938679 0.229719337663998 0  1.051242910646791 0.2854826559431138 0  1.395420985247586 0.18
[...]
<PointData  Vectors="f_37"> 
<DataArray  type="Float64"  Name="f_37"  NumberOfComponents="3" format="ascii">6.2280168222567261e-07 6.3503181207628310e-07 0.0000000000000000e+00  -3.8879698718160133e-06 -8.7481352164162407e-07 0.0000000000000000e+00  -1.2341818179342697e-06 4.5671926270525646e-09 0.0000000000000000e+00  -1.5063678124918327e-06 -5.5001180965292197e-09 0.0000000000000000e+00  5.1864104891487867e-06 -2.4600158406343261e-06 0.0000000000000000e+00  3.8932439805296837e-06 -2.3485416809497781e-06 0.0000000000000000e+00  -1.4689021459366013e-06 -2.3377454994364266e-06 0.0000000000000000e+00  -3.5338240411779568e-06 -2.0055292303432233e-07 0.0000000000000000e+00  1.3597940325327886e-05 -4.6398993971837389e-06 0.0000000000000000e+00  -2.3851672294755854e-06 -6.5612131412450925e-06 0.0000000000000000e+00  -1.6086924393122783e-06 4.1228291159112588e-06 0.0000000000000000e+00  2.6204237223450133e-06 2.5150488469805478e-06 0.0000000000000000e+00  5.8054332719666268e-06 -4.0978451315702220e-06 0.0000000000000000e+00  2.9241210222735644e-06 1.8446193974336896e-06 0.0000000000000000e+00  2.1117087386006427e-06 3.2768627347077503e-06 0.0000000000000000e+00  6.1220653993518123e-06 1.5528914878325539e-06 0.0000000000000000e+00  7.4694201419433771e-06 -9.7937218553577555e-07 0.0000000000000000e+00  3.3143031786463084e-01 8.6568745635650549e-02 0.0000000000000000e+00  -4.1257469108098586e-06 -5.6761280662494526e-06 0.0000000000000000e+00  -1.1245056831266449e-05 -9.1992362083754607e-07 0.0000000000000000e+00  -2.3675495438018772e-06 1.2861100786558589e-06 0.0000000000000000e+00  2.6019516255216126e-06 7.0980858628426907e-06 0.0000000000000000e+00  5.6348910801681376e-06 3.9839415320494155e-06 0.0000000000000000e+00  3.8829726183713709e-06 -5.2605719242659754e-06 0.0000000000000000e+00  -4.5788046110085330e-06 -5.2225329084641308e-06 0.0000000000000000e+00  -9.5106091714083143e-06 -1.6585389167280550e-07 0.0000000000000000e+00  -8.8991650060419253e-06 3.3999888232159683e-06 0.0000000000000000e+00  6.0512259366376251e-06 -1.8077002049522615e-06 0.0000000000000000e+00  -1.2737668838770891e-06 2.5824256514003097e-08 0.0000000000000000e+00  1.6583305328030337e-01 -1.4107502283397623e-06 0.0000000000000000e+00  -1.6008342953139129e-06 -1.0392327377941179e-08 0.0000000000000000e+00  1.0100052692829359e-06 -5.2738503309054474e-06 0.0000000000000000e+00  -1.2400783362743241e-07 -5.0848840582991204e-07 0.0000000000000000e+00  1.8649893001879067e-06 -4.6215456221637104e-07 0.0000000000000000e+00  -1.4481624755865351e-06 -2.0332410965915087e-07 0.0000000000000000e+00  1.6787186311652742e-07 -9.0018063991059832e-08 0.0000000000000000e+00  -2.6804616328378403e-06 -1.6116593625878283e-08 0.0000000000000000e+00  1.1134185981386156e-07 -9.2306170495736158e-08 0.0000000000000000e+00  -2.6861226408729890e-06 -2.4673981850948952e-06 0.0000000000000000e+00  -1.6926216125213002e-06 1.0958766096233190e-09 0.0000000000000000e+00  -2.2464247414294627e-06 -4.3384552700773701e-09 0.0000000000000000e+00  -1.4263394794355488e-06 -4.6508741665068757e-09 0.0000000000000000e+00  -8.5790820512058614e-07 -3.0652883028692680e-09 0.0000000000000000e+00  -1.1129780578962162e-06 3.3140440113500238e-09 0.0000000000000000e+00  -4.3717946935267454e-07 -5.7836561664245978e-09 0.0000000000000000e+00  1.8987089375055469e-01 -1.1677498708673425e-04 0.0000000000000000e+00  1.8986472551817482e-01 -4.2145018454092379e-06 0.0000000000000000e+00  1.8960472097512221e-01 -2.6686869012581597e-02 0.0000000000000000e+00  1.8990001262614548e-01 -1.8128998313907353e-03 0.0000000000000000e+00  1.8987487811589621e-01 -2.1405594187039224e-05 0.0000000000000000e+00  1.8987127843342880e-01 -8.3241140659417712e-06 0.0000000000000000e+00  -4.8967021831520554e-07 -9.5514699289999132e-08 0.0000000000000000e+00  -3.8932489634680226e-07 6.3428483064600810e-09 0.0000000000000000e+00  -1.1559607410053759e-06 9.1332059691112720e-09 0.0000000000000000e+00  1.8863241100226802e-01 -6.4310088337453950e-06 0.0000000000000000e+00  -1.5361162843561718e-06 -2.4524743235272240e-09 0.0000000000000000e+00  1.8959932228495160e-01 -3.8968583281316312e-04 0.0000000000000000e+00  -2.0808017967332970e-06 2.6966942037196652e-09 0.0000000000000000e+00  -1.8390056554628562e-06 -8.9222854705379481e-10 0.0000000000000000e+00  -1.3499229613242014e-06 -5.4644480504119367e-09 0.0000000000000000e+00  -2.0435129831054998e-06 -2.9845381180484132e-08 0.0000000000000000e+00  -3.6566226309724641e-06 -8.6945127484884592e-08 0.0000000000000000e+00  2.9758101702178302e-07 3.4878358661396205e-07 0.0000000000000000e+00  -4.7787497481485528e-06 -4.7260806124187614e-07 0.0000000000000000e+00  -8.6067334167851631e-07 1.5832348496761962e-07 0.0000000000000000e+00  -1.7116795974821861e-06 9.3177900930085358e-08 0.0000000000000000e+00  4.0042971556599336e-07 -2.8250168492227324e-09 0.0000000000000000e+00  1.8640947641859679e-01 -6.0493150183267459e-03 0.0000000000000000e+00  -6.1930088854735426e-07 -3.7845836663966290e-09 0.0000000000000000e+00  1.8983299635169171e-01 -2.9514858634098676e-05 0.0000000000000000e+00  2.5161484214916841e-01 -1.0474054671017298e-01 0.0000000000000000e+00  1.6883288262590382e-01 3.5361212542663875e-02 0.0000000000000000e+00  2.3001396810344299e-01 1.0463115008629729e-01 0.0000000000000000e+00  1.8976170269783879e-01 -9.6270887218387216e-06 0.0000000000000000e+00  1.9334316044875238e-01 -3.8865121399903838e-03 0.0000000000000000e+00  1.9017442782828800e-01 -4.4441233361328466e-04 0.0000000000000000e+00  1.1135695613540135e-01 -3.0455737720396642e-02 0.0000000000000000e+00  1.8972457153027020e-01 1.4794012537666021e-05 0.0000000000000000e+00  1.8971209657136257e-01 -6.6157987924290689e-06 0.0000000000000000e+00  1.8866456075798110e-01 7.4659322222045362e-07 0.0000000000000000e+00  7.5234953534349114e-02 2.4841003260326110e-06 0.0000000000000000e+00  2.7319286673239151e-01 -1.4685176179529786e-06 0.0000000000000000e+00  1.8986047537602332e-01 -1.4730350519924424e-05 0.0000000000000000e+00  2.8643555470981324e-01 7.5676880271094371e-02 0.0000000000000000e+00  1.8526706094537226e-01 -3.0757116921459280e-05 0.0000000000000000e+00  1.8878873581732725e-01 -7.5468218562519472e-05 0.0000000000000000e+00  1.8931224264943233e-01 -3.5345943043877432e-05 0.0000000000000000e+00  1.9592917056906439e-01 -4.7197782281044025e-03 0.0000000000000000e+00  1.8808864404174799e-01 -4.1091651467595440e-07 0.0000000000000000e+00  1.8867136064292578e-01 -1.4219855097921248e-06 0.0000000000000000e+00  1.8760383847802772e-01 -6.8653987371954128e-04 0.0000000000000000e+00  2.2303552260972948e-01 -2.1142797817909217e-02 0.0000000000000000e+00  1.7475003637046380e-01 -1.0269344668059462e-02 0.0000000000000000e+00  1.8868291845121959e-01 -3.1268102920636524e-05 0.0000000000000000e+00  1.9027126652270987e-01 -1.0454013075999618e-03 0.0000000000000000e+00  1.8849793024725994e-01 -3.3044800303438453e-05 0.0000000000000000e+00  1.8100292277441640e-01 -5.7832384427972641e-05 0.0000000000000000e+00  1.7829512437257380e-01 -1.2252057160224974e-03 0.0000000000000000e+00  3.4568813553078653e-01 -6.3436946823672749e-02 0.0000000000000000e+00  -2.2704192238587748e-06 1.2603564064316545e-07 0.0000000000000000e+00  1.8988462773201978e-01 -1.3614918020433869e-06 0.0000000000000000e+00  9.4618090153873861e-08 -2.0789963623121430e-07 0.0000000000000000e+00  1.8939959703403109e-01 1.9475561067856531e-05 0.0000000000000000e+00  1.9397815567343307e-01 -1.1046341896462208e-02 0.0000000000000000e+00  1.8993608935208978e-01 -2.7322034495034554e-04 0.0000000000000000e+00  1.2947252017485403e-01 8.1414587051972812e-02 0.0000000000000000e+00  2.4589104645633109e-01 -1.3173454422155926e-03 0.0000000000000000e+00  2.0822752455260940e-01 3.2657338359660233e-02 0.0000000000000000e+00  1.5499410602858402e-01 1.0516919621794357e-01 0.0000000000000000e+00  4.3720970687016880e-01 -5.2048883949755390e-02 0.0000000000000000e+00  1.6332496767623783e-01 -2.6040094690760785e-02 0.0000000000000000e+00  3.7614902694143419e-07 3.8703479967311896e-07 0.0000000000000000e+00  1.7692685580944001e-01 1.6560612640158247e-05 0.0000000000000000e+00  -2.4951040436206880e-06 -2.1379363849584501e-08 0.0000000000000000e+00  1.6071310382763679e-08 -1.0273857442738410e-07 0.0000000000000000e+00  -5.7862905722369019e-07 -5.5428932246305537e-09 0.0000000000000000e+00  1.8986939366755157e-01 -4.1317243737707180e-05 0.0000000000000000e+00  -1.7182495287313956e-06 1.6040464684277600e-07 0.0000000000000000e+00  3.6895092969137494e-01 5.7044907158161580e-02 0.0000000000000000e+00  3.9291045064113334e-01 5.7491914122835212e-02 0.0000000000000000e+00  1.8104621890665296e-01 -1.7277975625716504e-05 0.0000000000000000e+00  3.3958096043401481e-01 2.4485878805262082e-02 0.0000000000000000e+00  -1.7629749123838234e-06 -6.1464618506181387e-10 0.0000000000000000e+00  7.4694478494308620e-07 1.1202824658685060e-06 0.0000000000000000e+00  -1.0738903161457481e-06 -1.2479078643196511e-10 0.0000000000000000e+00  1.8284369534784858e-01 -1.4304831556753808e-06 0.0000000000000000e+00  1.8157205109287880e-01 -6.1933942967475536e-02 0.0000000000000000e+00  -2.4708756131253768e-06 6.3876587775010498e-08 0.0000000000000000e+00  2.4194544312268079e-01 -1.2838248552132350e-01 0.0000000000000000e+00  1.5110257176290409e-01 1.2379494229871861e-01 0.0000000000000000e+00  2.6531880449660022e-01 -3.3064603115024092e-02 0.0000000000000000e+00  -1.5362262074904877e-06 -1.0081926387327514e-07 0.0000000000000000e+00  1.4137035944398305e-01 2.9234858948201881e-02 0.0000000000000000e+00  1.8974649470615090e-01 -1.7414182481270032e-04 0.0000000000000000e+00  1.8074068932770396e-01 -1.4473748339461221e-04 0.0000000000000000e+00  -3.6421081509728512e-07 5.4186785813289639e-10 0.0000000000000000e+00  1.7387308984786690e-01 -3.2917951437546459e-03 0.0000000000000000e+00  1.8985048657059556e-01 -1.4894946645313438e-05 0.0000000000000000e+00  1.8995827946149746e-01 -3.9757216664777608e-03 0.0000000000000000e+00  1.8957016330784060e-01 -8.9858673288122862e-04 0.0000000000000000e+00  1.8113713928008182e-01 -1.8265364241627279e-05 0.0000000000000000e+00  1.8833113218906203e-01 -1.9030277621896858e-03 0.0000000000000000e+00  1.8593060295890895e-01 8.4800930567141737e-04 0.0000000000000000e+00  1.4073147410000389e-01 -1.0331794281203911e-02 0.0000000000000000e+00  1.8542717233721887e-01 -1.3505783717249234e-02 0.0000000000000000e+00  1.1762342197704082e-01 -1.0839972405627585e-01 0.0000000000000000e+00  2.2731957570089623e-01 1.5171802048588416e-02 0.0000000000000000e+00  7.0666852080286155e-02 7.8775369974653647e-02 0.0000000000000000e+00  1.2591300647028278e-01 -2.1601032144560398e-02 0.0000000000000000e+00  -1.6444523320874760e-06 -9.2366247013286216e-07 0.0000000000000000e+00  -1.0466687256659975e-06 -8.1301030916054407e-09 0.0000000000000000e+00  -4.9402706360290377e-06 3.4837280701710928e-07 0.0000000000000000e+00  2.0366941977258718e-01 -1.7075786239553560e-02 0.0000000000000000e+00  7.6028070068770645e-02 3.9677503621914696e-02 0.0000000000000000e+00  -9.0226168726290925e-07 -3.8264544147608729e-07 0.0000000000000000e+00  -1.3062266664606809e-06 3.6642137542849400e-09 0.0000000000000000e+00  1.7977827013005318e-01 1.4296545965105948e-05 0.0000000000000000e+00  1.8980935190100373e-01 -2.0098507351777318e-07 0.0000000000000000e+00  -1.3854160635987496e-06 2.2772389507918798e-09 0.0000000000000000e+00  -1.7532686167535869e-06 5.5126266735961736e-09 0.0000000000000000e+00  -1.5421824138662787e-06 -5.4929151292948439e-09 0.0000000000000000e+00  -5.4743204669259887e-07 2.9579257869510900e-09 0.0000000000000000e+00  -5.6240442031171082e-07 -2.6926963020461178e-09 0.0000000000000000e+00  1.6935541429495348e-06 4.9757981646409894e-07 0.0000000000000000e+00  -2.7226321424337274e-06 -6.5185469343130942e-07 0.0000000000000000e+00  -1.0899004080335524e-06 1.8126594046647949e-09 0.0000000000000000e+00  -8.0941780175068488e-07 -2.6954447354123618e-08 0.0000000000000000e+00  2.4898529371524293e-08 4.4746680823597843e-08 0.0000000000000000e+00  -2.7505716100090940e-07 -1.4126228130795648e-09 0.0000000000000000e+00  -1.7497382958491398e-06 6.9098470874730109e-09 0.0000000000000000e+00  -7.9898633703676587e-07 -3.5612395016352222e-09 0.0000000000000000e+00  1.5134436465243942e-01 -8.7715728849426973e-03 0.0000000000000000e+00  1.7148363288120202e-01 -1.1816149078100708e-04 0.0000000000000000e+00  1.7451321797816433e-01 -9.8217237867350218e-04 0.0000000000000000e+00  1.7570753010354953e-01 -7.9151635244124962e-07 0.0000000000000000e+00  2.8800284858064035e-01 1.0550903307156956e-01 0.0000000000000000e+00  2.7942425675473537e-01 4.0462185751892525e-02 0.0000000000000000e+00  3.1448734235714926e-01 3.0877344821549083e-02 0.0000000000000000e+00  1.7946722211676905e-01 -2.3312175388630698e-05 0.0000000000000000e+00  1.8986794918630159e-01 -1.5463934977156157e-05 0.0000000000000000e+00  1.9020726074939134e-01 -9.5996329307603033e-04 0.0000000000000000e+00  1.6781058931044124e-01 -7.1897787539070508e-06 0.0000000000000000e+00  1.8988387590270375e-01 -1.4067371940339726e-05 0.0000000000000000e+00  1.8987075073046200e-01 -1.4691032757896578e-05 0.0000000000000000e+00  1.8984036661290857e-01 -1.3645090344493902e-05 0.0000000000000000e+00  1.8987108396330910e-01 -5.4869862459336803e-06 0.0000000000000000e+00  1.7074390358409600e-01 -2.7949946395454981e-05 0.0000000000000000e+00  1.7556073387487578e-01 -6.2796094091997258e-06 0.0000000000000000e+00  2.2222724070600183e-01 1.4681156950622284e-01 0.0000000000000000e+00  2.7848637978305561e-02 4.0306804815082847e-03 0.0000000000000000e+00  1.6844954023531158e-01 -1.6100460685722635e-04 0.0000000000000000e+00  2.3259920859936140e-01 -1.0382497650100403e-02 0.0000000000000000e+00  1.8772310672340192e-01 -2.6146689327644092e-05 0.0000000000000000e+00  1.8986955702769504e-01 -8.5395183280134980e-06 0.0000000000000000e+00  1.8991639646877015e-01 -5.4730706022450694e-04 0.0000000000000000e+00  1.8984873466515659e-01 -5.7113104591896843e-06 0.0000000000000000e+00  1.7658706421260584e-01 -6.4556283515307937e-06 0.0000000000000000e+00  1.8984840722760390e-01 -6.0652138253307878e-05 0.0000000000000000e+00  1.9111197414784364e-01 -2.3736687834648991e-03 0.0000000000000000e+00  1.7303318175802049e-01 -1.8976531971419619e-05 0.0000000000000000e+00  1.8985644686489872e-01 -5.6295548484088043e-06 0.0000000000000000e+00  1.7147937449528253e-01 1.4154032828821251e-05 0.0000000000000000e+00  1.6291357803682449e-01 6.0384883912730093e-02 0.0000000000000000e+00  1.5661751176545755e-01 7.9415327491870774e-02 0.0000000000000000e+00  1.9551740745056115e-01 1.4282777881935266e-02 0.0000000000000000e+00  1.6414044826742552e-01 -3.7955660919595868e-04 0.0000000000000000e+00  1.9142171581922893e-01 -6.5600025465475578e-03 0.0000000000000000e+00  1.9030145475265972e-01 -7.2214634217210923e-04 0.0000000000000000e+00  3.7383364293798022e-01 2.9282556841137578e-02 0.0000000000000000e+00  1.8993585669300453e-01 -1.3979652002562681e-04 0.0000000000000000e+00  1.8993299754842916e-01 -2.1999477552338634e-04 0.0000000000000000e+00  3.3916802969298609e-01 1.3995225035725056e-01 0.0000000000000000e+00  3.0725759350381554e-01 3.1934760711972238e-02 0.0000000000000000e+00  2.3984656962556056e-01 7.0225034571141973e-02 0.0000000000000000e+00  1.8986830226604712e-01 4.8910360766162904e-06 0.0000000000000000e+00  1.8955951188507530e-01 -1.6497454834527326e-05 0.0000000000000000e+00  1.8987828330487275e-01 -1.8704925361072479e-05 0.0000000000000000e+00  2.2374994000801096e-01 -5.4982316823943722e-02 0.0000000000000000e+00  1.6318338959709452e-01 3.0886763601230754e-02 0.0000000000000000e+00  1.6522888153967949e-01 3.0927274751951457e-06 0.0000000000000000e+00  2.3818373084662872e-01 2.4452982545913188e-02 0.0000000000000000e+00  2.2485610946038256e-01 7.2213010050551085e-02 0.0000000000000000e+00  1.8974682721903560e-01 -8.3936652924068426e-05 0.0000000000000000e+00  1.7128581330316733e-01 -2.5455053740836098e-05 0.0000000000000000e+00  1.8293129342032391e-01 -8.3789468470636349e-04 0.0000000000000000e+00  4.5514202529652892e-01 1.1467377578700937e-02 0.0000000000000000e+00  1.8699914830140379e-01 -3.1603199713061232e-03 0.0000000000000000e+00  2.0445315419109591e-01 -8.0810786705628294e-03 0.0000000000000000e+00  1.8969848088373989e-01 -9.0127120444852679e-06 0.0000000000000000e+00  1.6803769348066253e-01 -3.0951226427098151e-03 0.0000000000000000e+00  1.8968716675884800e-01 -2.5244389500999004e-05 0.0000000000000000e+00  1.8988465377562133e-01 -6.9681366718478364e-05 0.0000000000000000e+00  1.8903026723476976e-01 -5.1564051343171537e-04 0.0000000000000000e+00  1.3856894192937969e-01 -3.3671675277281892e-03 0.0000000000000000e+00  1.4907383568598215e-01 -1.5966799968019832e-05 0.0000000000000000e+00  1.4842057384558860e-01 -1.4348599488852538e-04 0.0000000000000000e+00  1.7833281215647129e-01 -1.9870269679619825e-02 0.0000000000000000e+00  7.3320786176555505e-02 3.1907098587029795e-02 0.0000000000000000e+00  1.8943412139014576e-01 -5.4199458753039875e-06 0.0000000000000000e+00  1.5627556197074774e-01 7.7240644398888558e-06 0.0000000000000000e+00  3.9583827785582160e-01 -1.0307305484472876e-01 0.0000000000000000e+00  1.8983766042390532e-01 -6.2912307822305319e-06 0.0000000000000000e+00  1.8972587957065401e-01 -7.8884651342511562e-06 0.0000000000000000e+00  3.5785883013615218e-02 2.5321828190439696e-06 0.0000000000000000e+00  1.8203327671141514e-01 -8.0682762048543445e-03 0.0000000000000000e+00  1.6128175734895231e-01 4.6387026562201124e-02 0.0000000000000000e+00  1.8988268698695010e-01 -1.7942708227603001e-06 0.0000000000000000e+00  1.8961844342125295e-01 -1.4209691372095254e-05 0.0000000000000000e+00  1.4448734594512377e-01 -7.0769766560659206e-04 0.0000000000000000e+00  1.9402800228021405e-01 -3.4860858490960724e-03 0.0000000000000000e+00  3.7539197207855390e-01 4.0264015661580950e-02 0.0000000000000000e+00  1.6352546920374483e-01 2.7812937207591052e-05 0.0000000000000000e+00  1.4775050526811118e-01 1.5423340158877033e-05 0.0000000000000000e+00  1.5860013836175618e-01 -5.0230620551680059e-06 0.0000000000000000e+00  2.1260228012185852e-02 -3.4811232712923953e-02 0.0000000000000000e+00  3.3356412111572359e-01 -1.0319726188746759e-06 0.0000000000000000e+00  1.5498185030569306e-01 5.6009677605960698e-07 0.0000000000000000e+00  3.9193600623853431e-01 -1.4176480029449292e-02 0.0000000000000000e+00  1.6202638753298362e-01 2.5176314480248487e-05 0.0000000000000000e+00  1.9186438264831279e-01 -1.9645941963335875e-03 0.0000000000000000e+00  1.1852605277623136e-01 7.9089052005820370e-07 0.0000000000000000e+00  1.8985586093893497e-01 -1.6897830087382671e-05 0.0000000000000000e+00  1.5868084815718522e-01 -4.2465320344765723e-05 0.0000000000000000e+00  2.1733322185166204e-01 -1.5335201960172244e-06 0.0000000000000000e+00  1.5863362705449047e-01 -1.3612383489453507e-05 0.0000000000000000e+00  1.8967446517820952e-01 -6.1690997598713937e-05 0.0000000000000000e+00  1.8986278191105185e-01 -1.1935735174219252e-05 0.0000000000000000e+00  1.5460719331424397e-01 -7.0048132291902873e-05 0.0000000000000000e+00  1.3108363823093655e-01 -2.0625482380634426e-05 0.0000000000000000e+00  1.8883347177063797e-01 -2.0683685395297640e-04 0.0000000000000000e+00  1.2878724431632599e-01 -4.7112081751540596e-04 0.0000000000000000e+00  2.5965205335114161e-01 -2.5650671389122696e-02 0.0000000000000000e+00  2.0470036793836671e-01 -1.5948342584881189e-02 0.0000000000000000e+00  3.1896144323836934e-01 -8.9165552652652691e-02 0.0000000000000000e+00  1.4899194014814696e-01 -5.8164315390669643e-05 0.0000000000000000e+00  2.0554305641316770e-01 -3.2837087443359961e-02 0.0000000000000000e+00  1.8930242145956472e-01 -6.9753318789238386e-03 0.0000000000000000e+00  1.8923317326154360e-01 -1.1007052817700612e-05 0.0000000000000000e+00  1.8918963181175122e-01 -1.3767048847735588e-03 0.0000000000000000e+00  1.3100271097859961e-01 9.8867773934900928e-06 0.0000000000000000e+00  1.4807511960838965e-01 -1.2877967041