<?xml version="1.0"?>
<VTKFile type="UnstructuredGrid"  version="0.1"  >
<UnstructuredGrid>
<Piece  NumberOfPoints="1404" NumberOfCells="2604">
<Points>
<DataArray  type="Float64"  NumberOfComponents="3"  format="ascii">0 0.41 0  0 0 0  2.2 0 0  2.2 0.41 0  0.2353553390593274 0.2353553390593274 0  0.25 0.2 0  0.2353553390593274 0.1646446609406726 0  0.2 0.15 0  0.1646446609406726 0.1646446609406726 0  0.15 0.2 0  0.1646446609406726 0.2353553390593274 0  0.2 0.25 0  0.6923879532511287 0.188268343236509 0  0.7 0.15 0  0.6923879532511287 0.1117316567634909 0  0.6707106781186547 0.07928932188134523 0  0.6382683432365089 0.05761204674887133 0  0.6 0.04999999999999999 0  0.5617316567634909 0.05761204674887134 0  0.5292893218813453 0.07928932188134524 0  0.5076120467488713 0.111731656763491 0  0.5 0.15 0  0.5076120467488713 0.188268343236509 0  0.5292893218813453 0.2207106781186547 0  0.561731656763491 0.2423879532511287 0  0.6 0.25 0  0.6382683432365089 0.2423879532511287 0  0.6707106781186547 0.2207106781186547 0  1.1 0 0  0 0.205 0  1.1 0.41 0  0.55 0 0  0.55 0.41 0  0.275 0 0  0.8250000000000001 0 0  0.275 0.41 0  0.8250000000000001 0.41 0  0.6875 0 0  0.61875 0 0  1.65 0.41 0  1.65 0 0  1.375 0 0  1.375 0.41 0  1.925 0 0  1.925 0.41 0  1.5125 0.205 0  1.7875 0.205 0  0.9625000000000001 0.205 0  1.2375 0.205 0  2.2 0.205 0  1.99375 0.2152743902439024 0  0.4125 0.41 0  2.0625 0 0  2.0625 0.41 0  2.2 0.3075 0  1.7875 0.41 0  1.375 0.1486128048780488 0  1.5125 0 0  1.7875 0 0  1.5125 0.41 0  0.9625000000000001 0.41 0  0.4125 0 0  0.1375 0 0  0.1375 0.41 0  0.6875 0.41 0  0.9625000000000001 0 0  1.2375 0 0  1.1 0.1486128048780488 0  1.2375 0.41 0  1.65 0.1486128048780487 0  0.823495464168302 0.2603780552348366 0  0.3738707794507017 0.2720196349488618 0  0.3662291281331582 0.1311456406657909 0  1.676715909090909 0.2793064024390244 0  1.126715909090909 0.2793064024390244 0  1.348284090909091 0.2793064024390244 0  0.8287581077665108 0.1302150898054257 0  1.894702181800738 0.1282910975492754 0  2.092797818199262 0.1282910975492754 0  1.85625 0.3075 0  0 0.3075 0  0 0.1025 0  2.099172119769978 0.25625 0  0.4752414543992246 0.3180372603390748 0  1.99375 0.08395950269330846 0  1.459960956013612 0.3075 0  1.569025960719943 0.2986889805672169 0  1.03125 0.3278689922742084 0  1.959375 0.3126371951219512 0  1.749222215368287 0.1025 0  1.275777784631713 0.1025 0  0.9228016959331474 0.3075 0  1.000777784631713 0.1025 0  2.2 0.1025 0  1.225938124459196 0.3075 0  1.550777784631713 0.1025 0  1.44375 0.07430640243902442 0  1.16875 0.07430640243902439 0  0.7562500000000001 0.3358727844323386 0  0.89375 0 0  1.899250267340833 0.2229966846119207 0  0.61875 0.41 0  1.766482954545455 0.2934032012195123 0  1.046078563095834 0.2389031808701145 0  1.421109702350723 0.2261157654379721 0  0.07567171807980319 0.25625 0  0.2511897295290552 0.3235829392832554 0  0.07655002503762308 0.1488653460959645 0  0.1377245246847496 0.3206030474919778 0  0.6694099692696568 0.3242771941727899 0  0.9168971191497528 0.1295727156104653 0  0.7562500000000001 0 0  2.118919042110979 0.3422084711244843 0  2.13125 0 0  0.06875000000000001 0 0  1.30625 0.41 0  1.597888256393107 0.2173787389261347 0  0.34375 0.41 0  0.2493272016354703 0.08091360081773515 0  0.5588896233436766 0.3264056208677571 0  1.829299675393195 0.07400700849299596 0  0.1334079128307869 0.08523463035786674 0  1.71875 0.41 0  0.06875000000000001 0.41 0  1.16875 0.41 0  2.038220665644273 0.332420740103091 0  0.8810647413215221 0.2027360103977071 0  0.34375 0 0  0.7453891198966415 0.2471459041008237 0  0.42112093004955 0.1988123139090554 0  0.8314023090855964 0.3351170841770613 0  0.89375 0.41 0  0.7906250000000001 0.06615386481594063 0  1.452769549894695 0.1548122580621249 0  1.369219062229598 0.07430640243902442 0  1.30625 0 0  1.07420695807087 0.07430640243902439 0  1.720943423819132 0.1714577452753128 0  1.157188124459196 0.205 0  1.304056576180868 0.1714577452753128 0  1.67579304192913 0.07430640243902437 0  1.209670467133757 0.136210026696477 0  0.4312800784902823 0.08036147352247747 0  0.8723959680194693 0.07066860609690805 0  1.025335513626278 0.1700681449722324 0  0.7945632284247136 0.1940204203251442 0  0.378125 0.3452261501101892 0  0.3307109909790086 0.2037165635083759 0  0.3009701032039409 0.2702970083403109 0  0.20625 0.41 0  1.58125 0 0  0.4812500000000001 0 0  0.9838963872396855 0.2722244191167347 0  0.06772484939107212 0.3260067317374387 0  0.20625 0 0  1.58125 0.41 0  1.631724228912893 0.3381867502687533 0  1.825608881788174 0.14499488549201 0  1.85625 0 0  1.44375 0 0  1.44375 0.41 0  1.85625 0.41 0  2.13125 0.41 0  0.7562500000000001 0.41 0  0.4812500000000001 0.41 0  1.16875 0 0  1.03125 0.41 0  1.03125 0 0  1.71875 0 0  1.99375 0 0  1.99375 0.41 0  0.9408708167433545 0.0651989315768642 0  1.340625 0.3489494290853124 0  1.134375 0.3489494290853123 0  1.700180620188976 0.3438659752031281 0  0.29668452290037 0.1318471691375986 0  0.3175441051360096 0.06496934809856265 0  0.06509151636162461 0.08140814015999148 0  2.135782184673599 0.07126652247502523 0  1.668441847249787 0.2129203728327609 0  1.295782514339747 0.2378437748815763 0  1.409375 0.3520314716057996 0  2.129248544730567 0.1906135162504124 0  2.060771381434487 0.1989445750470348 0  2.013252586573865 0.1496169464686054 0  1.942766402200229 0.1734448904596831 0  1.895522487186454 0.06076163953489683 0  2.069553871656643 0.06605731020975725 0  0.4670911801404742 0.2498408582391372 0  0.7622743084658112 0.1264100838268133 0  1.274680914880868 0.3520219391081363 0  0.3148669572599245 0.3331753056385887 0  1.614713220494657 0.09473434380863296 0  1.72990325744076 0.2380068107952482 0  1.356580098625191 0.2120393231351682 0  2.034370752044885 0.2668681600792073 0  1.51768709249349 0.3426260931494756 0  1.561883724969884 0.1650446847858835 0  1.197344062229598 0.2523725417393646 0  1.804085235518364 0.3468178408964637 0  1.817887819205233 0.2589243285818559 0  1.905897727272727 0.3485060975609756 0  0.7296439733931823 0.06337466644369745 0  0.4250935971865949 0.1394919578475796 0  0.3773030136511669 0.05130372097998036 0  1.192836486056382 0.3562350748565544 0  1.1029124365364 0.226143510831178 0  1.28257088594801 0.2944411014911587 0  0.1905185804731426 0.06029880676029167 0  1.474860187679412 0.2504218616229368 0  1.406767003493824 0.2829282258560709 0  0.5209826960981064 0.2830664557824064 0  0.5131119502780163 0.3617405848213254 0  0.1948220106098172 0.3081993407644811 0  1.845656689180403 0.1998310418452388 0  2.144958525570388 0.2909790873294231 0  2.2 0.15375 0  0.8833025251326762 0.2625402923007629 0  0.171875 0.3653875762360952 0  1.57794966442982 0.3540357145964566 0  0.446875 0.366068291212731 0  0.4272051715206439 0.2891929346190664 0  1.508991196088596 0.1421783375065625 0  1.50436820029908 0.06143401634903343 0  1.223857000523521 0.08235548624535324 0  0.6137904613287555 0.3066826366281556 0  1.153316824384777 0.1289850171317838 0  0.9751573703656133 0.327632618473408 0  2.148922302309752 0.1258841779285271 0  0.9281250000000001 0.3643758685795699 0  1.621993280276081 0.2841214267927899 0  1.550118654119087 0.2461998729100966 0  1.327182649291491 0.1216967252533594 0  0.9939955742738924 0.04663549843168518 0  1.753125 0.04556020050186112 0  1.271875 0.04556020050186116 0  0.9734326767716519 0.1506854560854393 0  0.103125 0.3675775577080512 0  1.94956388244759 0.1180512551534177 0  1.949997712993411 0.04965831614304109 0  0.717433898748555 0.295596016333797 0  1.771961817615021 0.1530278789497521 0  1.909246823951428 0.2812757146784527 0  0 0.35875 0  1.050632804931928 0.1226269704412814 0  0.05695108326502596 0.2024009637347154 0  1.948575539857022 0.2445328248721197 0  1.697271520964565 0.1233917627620729 0  1.065625 0.3689344961371042 0  1.085849084308977 0.3170853572226867 0  0.1015495998772944 0.04226029099983852 0  1.577403511714593 0.05463601888079143 0  1.751571320346033 0.3651102912045228 0  2.2 0.35875 0  0.7441773632462837 0.1786786606458751 0  0 0.05125 0  1.466879772203159 0.3611261772912453 0  0.6282230348858767 0.3577675483994025 0  1.990280163552011 0.3564754268533217 0  1.17471064520912 0.2990917256188288 0  0 0.25625 0  2.2 0.25625 0  2.2 0.05125 0  0 0.15375 0  1.853978576207987 0.35875 0  1.515638456102889 0.2882700110184686 0  2.150453692751374 0.2387066338105111 0  1.323782677156475 0.04897634338873398 0  1.409375 0.03715320121951221 0  1.406484531114799 0.1087852750766809 0  1.134375 0.03715320121951219 0  0.721875 0.3729363922161693 0  0.7941695928236929 0.3696489254637395 0  0.7934827162619036 0.3013409431456604 0  1.627401732573545 0.04552157221025036 0  0.9352049974617431 0.2507047965699472 0  0.8763260682738339 0.3611103317460093 0  2.045405893604797 0.1105340662939892 0  1.255408269734577 0.1577307500159216 0  2.028125 0.03707597992059326 0  1.003030137506755 0.3689344961371042 0  1.248258025468107 0.2565907092181813 0  1.203125 0.03661323374043041 0  0.4800125512335631 0.0549472816999725 0  2.072662025974815 0.2975086504196739 0  0.240625 0.3729825336867542 0  1.113252391110535 0.10238286244357 0  1.071052763974265 0.1885202618768825 0  0.8738809401657862 0.3106483608284829 0  0.6786819423003397 0.2677558482644021 0  1.887722846421017 0.1760882698830035 0  1.472640588990488 0.1118278026240017 0  0.5843750000000001 0.41 0  1.865937103925594 0.2604137786483804 0  1.463913572748262 0.2030442564990043 0  1.376426316059077 0.3186741374914345 0  0.1038643885363755 0.2162701735320032 0  0.1769473813227781 0.1070849728467114 0  0.458787839809176 0.171541653775316 0  0.240625 0 0  0.04179569703428024 0.2877217852556549 0  0.1258346557601885 0.2699740073054968 0  1.722140693354707 0.282908100935778 0  0.41206179117512 0.2448172567039922 0  0.3702471778075604 0.2265217604228704 0  0.3714881805374215 0.1786967818665642 0  1.77397096061971 0.2481483237422926 0  2.105123889160691 0.03743885948498647 0  1.001138337938679 0.229719337663998 0  1.051242910646791 0.2854826559431138 0  1.395420985247586 0.18
[...]
<PointData  Vectors="f_37"> 
<DataArray  type="Float64"  Name="f_37"  NumberOfComponents="3" format="ascii">2.4934679636775515e-07 4.5232851294296338e-08 0.0000000000000000e+00  -4.4527768586301524e-06 -3.5334428901949648e-07 0.0000000000000000e+00  -6.4463021786365403e-07 2.0213433999510134e-09 0.0000000000000000e+00  -8.1647573595658734e-07 5.0873022064979825e-10 0.0000000000000000e+00  -5.9636435852207321e-08 3.2600899259499373e-07 0.0000000000000000e+00  1.1233153897073363e-07 -3.1950767479162271e-08 0.0000000000000000e+00  1.2610111833928956e-07 1.7909975724047983e-07 0.0000000000000000e+00  -9.1903027394946160e-07 -1.0056569411074059e-07 0.0000000000000000e+00  -8.6267174131790459e-07 -1.2204387398572985e-07 0.0000000000000000e+00  1.2980918798529293e-07 -4.4545733756176511e-07 0.0000000000000000e+00  -9.2694971106389380e-07 -5.1752189824257927e-07 0.0000000000000000e+00  -1.0568300605062957e-06 -2.5172518421086032e-07 0.0000000000000000e+00  4.1377377689468831e-07 -4.0805216426004451e-08 0.0000000000000000e+00  -3.1697989971556621e-07 -4.0106988401501480e-07 0.0000000000000000e+00  -3.5510807927928373e-07 -3.0258126313161639e-08 0.0000000000000000e+00  -8.5156073051269336e-07 -2.0523432086479832e-07 0.0000000000000000e+00  2.4078168755763860e-06 3.9228859261363408e-07 0.0000000000000000e+00  3.4769623328429816e-01 9.6723423309717976e-02 0.0000000000000000e+00  1.6075423007397456e-06 -1.0478328970622103e-07 0.0000000000000000e+00  -1.2373542071981920e-06 3.7205929928740395e-07 0.0000000000000000e+00  -1.3170453362184085e-06 -3.6842316508992198e-07 0.0000000000000000e+00  -3.7535097732686662e-08 -4.8799673497036204e-07 0.0000000000000000e+00  5.3234726061836644e-07 1.1539153243484800e-07 0.0000000000000000e+00  -3.9848779797682388e-07 -1.8383648088073855e-06 0.0000000000000000e+00  -3.1356419025059453e-06 -1.6403010660758453e-06 0.0000000000000000e+00  -4.5823595016682852e-06 -4.2227502822277148e-07 0.0000000000000000e+00  -4.5047751969923862e-06 -9.7520692752019168e-08 0.0000000000000000e+00  -3.1195518454815329e-07 9.0439917558769621e-08 0.0000000000000000e+00  7.6527762706267658e-07 -1.3813757332872984e-07 0.0000000000000000e+00  1.6583342623180655e-01 -4.2850217056876514e-07 0.0000000000000000e+00  -1.0796468607716991e-06 -8.8948010086597505e-08 0.0000000000000000e+00  3.0287261613060477e-06 5.9915009052230987e-08 0.0000000000000000e+00  -5.5057552192688698e-07 -9.2364178392333276e-08 0.0000000000000000e+00  4.1178956978277251e-07 4.6035098516853032e-08 0.0000000000000000e+00  -2.8305436497386574e-07 -3.7671785600959575e-08 0.0000000000000000e+00  -1.0310132669983482e-06 4.2702051589612665e-09 0.0000000000000000e+00  -1.4689201210406066e-06 8.2507055271768880e-08 0.0000000000000000e+00  -2.5516588989858183e-06 -4.7296810668561334e-07 0.0000000000000000e+00  -8.7248259925679866e-06 -1.1733484227320206e-06 0.0000000000000000e+00  -1.6055260412327893e-06 -1.6231541156207970e-07 0.0000000000000000e+00  -8.9444071832289877e-07 -9.2509687010746375e-08 0.0000000000000000e+00  -2.4194331808242208e-06 4.2215661509048664e-07 0.0000000000000000e+00  1.2894103494780191e-06 3.9137821496603047e-07 0.0000000000000000e+00  -5.0818321245869009e-07 -7.4249319807994927e-10 0.0000000000000000e+00  -3.7157811449307208e-08 6.8216916435104521e-10 0.0000000000000000e+00  2.4830967678681701e-01 1.0616302708814669e-02 0.0000000000000000e+00  2.2978158753425487e-01 4.9827741299678704e-03 0.0000000000000000e+00  1.5635205513397032e-01 -9.2579182645129692e-03 0.0000000000000000e+00  2.9727239189334570e-01 -8.1634420742775077e-02 0.0000000000000000e+00  2.2993904089404804e-01 -1.1806743013871677e-04 0.0000000000000000e+00  2.2959647581549450e-01 -2.3458756683058979e-04 0.0000000000000000e+00  2.6439113165293230e-07 -3.2155365849299238e-10 0.0000000000000000e+00  1.4584689491933653e-07 6.8398570314198073e-10 0.0000000000000000e+00  -5.2005232331089175e-07 2.7716680677301152e-09 0.0000000000000000e+00  1.8553438959548343e-01 -7.8454737978093692e-05 0.0000000000000000e+00  -9.0120489548327414e-07 -3.1345726436082360e-08 0.0000000000000000e+00  2.4792321281921315e-01 -7.0669179366858612e-02 0.0000000000000000e+00  -2.0024216758737522e-06 1.9594500349054366e-07 0.0000000000000000e+00  -8.7307365014425498e-07 -3.2120943818895266e-08 0.0000000000000000e+00  -1.8632071959167846e-07 -3.5339990613589219e-08 0.0000000000000000e+00  -3.1943847807913759e-07 -3.5161915201571140e-08 0.0000000000000000e+00  -3.6413518865236613e-07 -9.0753863541418986e-08 0.0000000000000000e+00  -8.5688673623994883e-07 -6.8795264678832605e-08 0.0000000000000000e+00  -3.7368881695997118e-07 -5.9680067308400389e-08 0.0000000000000000e+00  -2.3753038926280632e-06 5.6947142786646452e-08 0.0000000000000000e+00  -5.4351364574461853e-07 1.0575732789833566e-07 0.0000000000000000e+00  2.1956198608003752e-06 -6.4180987082801479e-07 0.0000000000000000e+00  1.2939613157048399e-01 1.4429303513019925e-03 0.0000000000000000e+00  -3.5778671929642843e-07 -4.5891140565954952e-08 0.0000000000000000e+00  2.2862503084896144e-01 1.5959860231414123e-02 0.0000000000000000e+00  2.6504011427882795e-01 -3.8769596619340402e-02 0.0000000000000000e+00  1.0590034984150515e-01 5.1643542181986036e-03 0.0000000000000000e+00  3.0498647075295043e-01 1.0655311904258391e-01 0.0000000000000000e+00  1.9895893180301891e-01 1.3411112557834696e-02 0.0000000000000000e+00  3.5061810960009321e-01 -5.3448040528126357e-02 0.0000000000000000e+00  2.2446554850602299e-01 -4.2881857336950345e-02 0.0000000000000000e+00  6.8597177693778405e-02 4.5650068979613385e-02 0.0000000000000000e+00  2.0671153614134163e-01 3.4070236844413443e-04 0.0000000000000000e+00  2.0664552249343124e-01 -1.9509544909708634e-04 0.0000000000000000e+00  1.8545404332602114e-01 5.9889713749334693e-04 0.0000000000000000e+00  7.5234905276331920e-02 4.4778878628620493e-08 0.0000000000000000e+00  2.7319254316818420e-01 2.2633785934108163e-08 0.0000000000000000e+00  2.2045646016163503e-01 -2.1923795523058975e-04 0.0000000000000000e+00  2.4067124202404075e-01 7.2524853221743915e-02 0.0000000000000000e+00  1.6365036213805523e-01 -1.6639052427093925e-04 0.0000000000000000e+00  1.4069110181506589e-01 6.5354336334621900e-03 0.0000000000000000e+00  1.6472706640766252e-01 2.1369898846141534e-02 0.0000000000000000e+00  3.2206505637996458e-01 -2.6880311849026263e-02 0.0000000000000000e+00  1.8051379910190371e-01 -1.7037143655310044e-04 0.0000000000000000e+00  1.8873475646938168e-01 4.2936565501546379e-03 0.0000000000000000e+00  1.1338998318996252e-01 -4.8021917509687269e-02 0.0000000000000000e+00  3.9067208893010680e-01 -3.7024747025041903e-02 0.0000000000000000e+00  5.5564251741640508e-02 1.5983277494003596e-02 0.0000000000000000e+00  1.8524115628594592e-01 -6.8271419401064507e-05 0.0000000000000000e+00  2.5583480153347027e-01 -4.6457030377131017e-02 0.0000000000000000e+00  2.1053410304925008e-01 6.1801610220297764e-03 0.0000000000000000e+00  1.6138708584831740e-01 -1.9770518128931200e-02 0.0000000000000000e+00  1.8062407020507171e-02 -2.2635685049246336e-04 0.0000000000000000e+00  4.2635457976876462e-01 -3.6144039139339841e-02 0.0000000000000000e+00  -5.0406684788372153e-07 2.8789693432843722e-08 0.0000000000000000e+00  2.2877333186687773e-01 5.0257814840239687e-04 0.0000000000000000e+00  -9.5114801498441014e-07 -3.1447345625281628e-09 0.0000000000000000e+00  1.9567880819255010e-01 3.9652591142437651e-03 0.0000000000000000e+00  2.8437190035597332e-01 -3.3415364374791721e-02 0.0000000000000000e+00  2.6106072782546297e-01 -3.2095319408989055e-02 0.0000000000000000e+00  1.2569803132358176e-01 7.1187168188289657e-02 0.0000000000000000e+00  2.3110045988814615e-01 1.4829044125114052e-02 0.0000000000000000e+00  2.0878455148923150e-01 2.4396637322885960e-02 0.0000000000000000e+00  1.4757307483476226e-01 7.3969357501549565e-02 0.0000000000000000e+00  4.5650531738784844e-01 -1.3720140800977059e-02 0.0000000000000000e+00  7.6436627196074303e-02 2.1842660135437491e-02 0.0000000000000000e+00  -2.1520482002669150e-07 -9.7516227387942560e-08 0.0000000000000000e+00  1.4145667385822883e-01 -8.7355299535088484e-05 0.0000000000000000e+00  -1.6080584160977495e-06 1.3495585546424443e-09 0.0000000000000000e+00  -1.2981267955265151e-06 9.0446930077832640e-09 0.0000000000000000e+00  2.6776442895034453e-07 1.3134187486335422e-07 0.0000000000000000e+00  2.2970295963889897e-01 2.5486695947252867e-02 0.0000000000000000e+00  -1.9007902190066010e-06 -1.6871259259786893e-08 0.0000000000000000e+00  4.0384380406031506e-01 4.2390351716147211e-02 0.0000000000000000e+00  3.7436397718171793e-01 7.7374491123199093e-02 0.0000000000000000e+00  1.5057496692200409e-01 7.1464839716758031e-04 0.0000000000000000e+00  3.4358986743629366e-01 1.3135959809898779e-02 0.0000000000000000e+00  -1.3658400965054422e-06 -9.9844049750497829e-08 0.0000000000000000e+00  -8.2394304502026178e-08 -1.1032814784571061e-08 0.0000000000000000e+00  -6.9554910590538376e-07 -4.4700716782054562e-08 0.0000000000000000e+00  1.5598777078252174e-01 -1.5867789730248522e-04 0.0000000000000000e+00  1.0061750441293231e-01 -2.1524553319519739e-03 0.0000000000000000e+00  -2.9952357008853993e-07 -9.7544209791446457e-08 0.0000000000000000e+00  1.4645735941763702e-01 -2.4850589788895632e-02 0.0000000000000000e+00  1.5537257867568752e-01 1.4955504425071769e-01 0.0000000000000000e+00  3.9534347576200263e-01 -3.4624971089718598e-02 0.0000000000000000e+00  1.9040469456674995e-06 -7.6250112811949353e-08 0.0000000000000000e+00  1.1626337035263959e-01 4.7307603251477121e-02 0.0000000000000000e+00  2.5778125447347960e-01 -3.0207418394215448e-02 0.0000000000000000e+00  1.2167890597618115e-01 -3.7178736470610263e-02 0.0000000000000000e+00  -1.9272666394309827e-08 -1.7031204575094235e-07 0.0000000000000000e+00  1.9969134610427614e-02 1.3360802757259193e-02 0.0000000000000000e+00  2.2892192222107041e-01 1.0553679380660213e-02 0.0000000000000000e+00  2.6429981493842580e-01 -4.7508750178330762e-02 0.0000000000000000e+00  2.6530213496518501e-01 -8.7612466191969676e-02 0.0000000000000000e+00  1.5987827850187311e-01 5.5838090536207549e-03 0.0000000000000000e+00  1.5186471598814999e-01 -3.7300396794555740e-02 0.0000000000000000e+00  2.3878715002578579e-01 2.5044815954681506e-02 0.0000000000000000e+00  6.5837311664333792e-02 1.7607801370813952e-02 0.0000000000000000e+00  1.3182345549595156e-01 3.9821339031306949e-03 0.0000000000000000e+00  2.3593028286113892e-02 9.1794710518255055e-03 0.0000000000000000e+00  2.1185123690113614e-01 7.7455772857342167e-03 0.0000000000000000e+00  3.5782283966562335e-02 1.5530236651418951e-02 0.0000000000000000e+00  1.0130957291821398e-01 -2.0211929049776808e-02 0.0000000000000000e+00  -9.3131038322318710e-07 -1.0958625174460776e-07 0.0000000000000000e+00  -4.0363689109692993e-07 -1.8145299755762584e-08 0.0000000000000000e+00  -6.5999384121853993e-07 3.8072654102876513e-07 0.0000000000000000e+00  3.4720500570208396e-01 -3.7837103050096542e-02 0.0000000000000000e+00  7.8046543890775796e-02 3.1229807676208737e-02 0.0000000000000000e+00  -2.2525190248895269e-06 -1.0514243576983142e-07 0.0000000000000000e+00  -1.3650531967246385e-06 -1.9124320962711533e-07 0.0000000000000000e+00  1.3167495886863345e-01 8.8416656375511007e-03 0.0000000000000000e+00  2.1712696432118234e-01 2.1855693704976231e-03 0.0000000000000000e+00  -6.9138145256443344e-07 -9.1080828519377454e-09 0.0000000000000000e+00  -2.7573402899636310e-06 5.2081692165055024e-07 0.0000000000000000e+00  8.4927690020310794e-07 2.4589733058117075e-07 0.0000000000000000e+00  -1.4713225793304525e-07 -5.1118806755109140e-09 0.0000000000000000e+00  -8.3629405290170407e-08 1.5023267507358358e-09 0.0000000000000000e+00  3.8522879846193593e-07 -2.1063213887726167e-08 0.0000000000000000e+00  -2.2415979249006759e-06 -2.6691752033087125e-07 0.0000000000000000e+00  2.2217636549556164e-06 -4.8842581670285598e-07 0.0000000000000000e+00  -5.8875749981681791e-08 -7.5536259408625074e-08 0.0000000000000000e+00  -1.2429527395502560e-07 1.4255858672805447e-07 0.0000000000000000e+00  4.0543117580585071e-07 -5.3982217912714443e-08 0.0000000000000000e+00  -8.9535731139961022e-07 2.2174514389104880e-09 0.0000000000000000e+00  -2.7265829003228196e-07 1.5057510324200529e-09 0.0000000000000000e+00  4.0667066174835939e-02 8.0988848093414278e-03 0.0000000000000000e+00  9.3618936527102056e-02 -1.0794790503313067e-02 0.0000000000000000e+00  2.0140356096897366e-01 -1.8775422705340203e-02 0.0000000000000000e+00  1.3292765009333185e-01 4.0190517241296617e-03 0.0000000000000000e+00  2.9157856205355220e-01 7.5787053378444505e-02 0.0000000000000000e+00  3.3738635842418818e-01 5.3542869872875043e-02 0.0000000000000000e+00  3.1541012844619110e-01 2.6274501614078107e-02 0.0000000000000000e+00  1.4628037860343832e-01 -7.2595502681087773e-05 0.0000000000000000e+00  2.2882337899273009e-01 1.8265630406973106e-02 0.0000000000000000e+00  3.0970303088015749e-01 -8.4395239645995282e-02 0.0000000000000000e+00  7.4724510341334288e-02 -2.3020756169912825e-03 0.0000000000000000e+00  2.2919045950470024e-01 -1.9751031333635607e-04 0.0000000000000000e+00  2.2978277563784452e-01 -2.7297551407290383e-04 0.0000000000000000e+00  2.1835374082100384e-01 -2.6250546356866290e-04 0.0000000000000000e+00  2.2632851877677132e-01 -1.3993873804366015e-05 0.0000000000000000e+00  1.2934520127804244e-01 3.6171615505657750e-05 0.0000000000000000e+00  1.3817794476820780e-01 -1.0148736418831941e-04 0.0000000000000000e+00  1.9859047163879046e-01 1.9055206225265647e-01 0.0000000000000000e+00  3.9932043908705264e-02 4.4953216319540232e-02 0.0000000000000000e+00  1.1412854818106949e-01 -1.3365939833033110e-02 0.0000000000000000e+00  2.1972635822225423e-01 -4.8453418035128886e-03 0.0000000000000000e+00  1.9497849604586279e-01 1.0228424638860102e-02 0.0000000000000000e+00  2.2317827381483998e-01 9.7679189383595814e-03 0.0000000000000000e+00  2.9402322991651886e-01 -7.4695727471171286e-02 0.0000000000000000e+00  2.1578441057736944e-01 -2.5856621650397637e-04 0.0000000000000000e+00  9.9183161513824558e-02 1.0639530733308599e-02 0.0000000000000000e+00  2.4435000724541364e-01 1.5873218659205161e-02 0.0000000000000000e+00  3.3677123570862683e-01 -7.3596352073046406e-02 0.0000000000000000e+00  1.3368105037519667e-01 8.1037677014322157e-04 0.0000000000000000e+00  2.1830328738805796e-01 2.4887339959814474e-03 0.0000000000000000e+00  1.3180121087292002e-01 -2.0534791984983021e-05 0.0000000000000000e+00  1.6288192486761743e-01 7.6372785449421804e-02 0.0000000000000000e+00  2.4653953161232825e-01 1.3040248079700784e-01 0.0000000000000000e+00  2.1990239000941958e-01 3.1083192955181353e-02 0.0000000000000000e+00  1.4509544459523122e-01 -1.4051993107714319e-02 0.0000000000000000e+00  2.8010195005709537e-01 -3.8986260961659962e-02 0.0000000000000000e+00  2.4065894410404207e-01 -5.0160997457441445e-02 0.0000000000000000e+00  3.9251115530354869e-01 1.7991613160511802e-02 0.0000000000000000e+00  2.1782897256866418e-01 5.0079731274489322e-03 0.0000000000000000e+00  1.8956976039405515e-01 -1.7222295370155259e-02 0.0000000000000000e+00  3.4039690966522601e-01 1.8352245940305739e-01 0.0000000000000000e+00  2.7774847650854079e-01 3.6369959062031963e-02 0.0000000000000000e+00  2.3155530498853810e-01 7.2372631565875312e-02 0.0000000000000000e+00  2.2982942117314331e-01 1.9191628731921146e-03 0.0000000000000000e+00  2.0032919722491419e-01 -1.4111005763143395e-04 0.0000000000000000e+00  2.2023329899524038e-01 -1.0066130832034737e-04 0.0000000000000000e+00  2.9810320695239556e-01 -3.8155526950936047e-02 0.0000000000000000e+00  1.2559581039436832e-01 2.5516444573934632e-02 0.0000000000000000e+00  9.7063507662983953e-02 8.1410863578077319e-03 0.0000000000000000e+00  2.1016793604593134e-01 2.1548914211445599e-02 0.0000000000000000e+00  1.5818381933568884e-01 4.9436760179106136e-02 0.0000000000000000e+00  2.4447281171241833e-01 -3.0979905118092180e-03 0.0000000000000000e+00  1.5466168281346568e-01 -2.3524556020561669e-03 0.0000000000000000e+00  4.7000197836622334e-02 -1.9720170997498773e-02 0.0000000000000000e+00  4.6269507148420530e-01 4.2721790527015864e-02 0.0000000000000000e+00  1.1295262009220436e-01 -8.4989839945310529e-03 0.0000000000000000e+00  3.4712154154102265e-01 -2.7242550901682386e-02 0.0000000000000000e+00  2.0506757129246952e-01 -1.2820719311536523e-04 0.0000000000000000e+00  2.3727587465527103e-01 -1.1961532748260279e-02 0.0000000000000000e+00  1.8790289381461445e-01 1.9798289145968186e-02 0.0000000000000000e+00  2.1350440253116906e-01 2.5490520250260679e-02 0.0000000000000000e+00  1.8282828930813261e-01 -6.8523314645417971e-02 0.0000000000000000e+00  1.9231823683428823e-02 5.5115619744775385e-03 0.0000000000000000e+00  1.0444822646740527e-01 1.1442996664329530e-03 0.0000000000000000e+00  1.4481645805975763e-02 -1.4029969689619348e-02 0.0000000000000000e+00  9.3789589165037879e-02 1.3376499399572372e-02 0.0000000000000000e+00  6.2773313420215901e-02 1.7619200778390239e-02 0.0000000000000000e+00  1.9898050922512897e-01 -1.1634873568667135e-04 0.0000000000000000e+00  1.0988756388058456e-01 -7.9276798279471109e-05 0.0000000000000000e+00  4.0264498925952352e-01 -4.0426757112061749e-02 0.0000000000000000e+00  2.2195190642564863e-01 5.2711172410347821e-03 0.0000000000000000e+00  2.0735566262185248e-01 1.2838120702412750e-04 0.0000000000000000e+00  3.5785430957826124e-02 8.1584135768113284e-08 0.0000000000000000e+00  7.7979922317046674e-02 1.5377873660152343e-02 0.0000000000000000e+00  1.5902894087346123e-01 4.2032023502520555e-02 0.0000000000000000e+00  2.2445986444995186e-01 -6.8144619441992441e-05 0.0000000000000000e+00  2.1075632927271287e-01 9.5052265332041565e-03 0.0000000000000000e+00  1.6114365591266794e-01 -8.3966819662794987e-03 0.0000000000000000e+00  3.2229529780312166e-01 -3.4538371506176634e-02 0.0000000000000000e+00  3.8095814840291570e-01 3.5623056245927681e-02 0.0000000000000000e+00  1.3921701651688567e-01 4.1841837644324047e-03 0.0000000000000000e+00  1.0005142733842588e-01 1.1070438270885088e-03 0.0000000000000000e+00  1.1349280900073930e-01 -3.7069150811222892e-05 0.0000000000000000e+00  -7.8913941912655515e-03 1.4168782947224240e-02 0.0000000000000000e+00  3.3356378872106079e-01 3.5203539276012056e-08 0.0000000000000000e+00  6.3248574498501131e-02 3.6473747640304649e-03 0.0000000000000000e+00  3.9169625169345984e-01 3.3121111734002225e-03 0.0000000000000000e+00  1.1799878083065579e-01 -1.0807507073724642e-04 0.0000000000000000e+00  3.1000663896116232e-01 -5.1894617215736079e-02 0.0000000000000000e+00  1.1852650551729173e-01 -2.7135422024502284e-08 0.0000000000000000e+00  2.2039872419997447e-01 -9.8098023588561139e-05 0.0000000000000000e+00  1.1324477827045845e-01 -2.1274906437460999e-05 0.0000000000000000e+00  2.1733315011061619e-01 -2.3441814121552483e-08 0.0000000000000000e+00  1.1391875408403192e-01 1.6482981040446282e-04 0.0000000000000000e+00  1.6848234476575519e-01 1.9808038660810715e-02 0.0000000000000000e+00  2.2597869223776013e-01 -1.6128352016843932e-04 0.0000000000000000e+00  5.0691605265530057e-02 -2.1222560539854080e-02 0.0000000000000000e+00  8.2638654823698254e-02 -1.0146686584744522e-02 0.0000000000000000e+00  1.9737384259101790e-01 -4.6555731129234487e-02 0.0000000000000000e+00  -1.4582258446167208e-02 4.4763489726650525e-03 0.0000000000000000e+00  3.1238358944841421e-01 -1.6572585243754497e-02 0.0000000000000000e+00  2.8518177510620157e-01 -1.7181002541074099e-02 0.0000000000000000e+00  4.0887825260131055e-01 -4.6368759658186244e-02 0.0000000000000000e+00  1.1476669277255004e-01 3.3192810959116466e-03 0.0000000000000000e+00  2.7461411139545944e-01 -3.2614283526250940e-02 0.0000000000000000e+00  2.7919222471100824e-01 -1.6605327640260535e-02 0.0000000000000000e+00  1.9269743685946364e-01 -2.0845039417146058e-04 0.0000000000000000e+00  2.2076458750404057e-01 -6.9937855441259467e-02 0.0000000000000000e+00  8.5651325220321511e-02 -5.2554232679116810e-05 0.0000000000000000e+00  1.8517148442111547e-01 -8.3194430457695073e-03 0.0000000000000000e+00  