<?xml version="1.0"?>
<VTKFile type="UnstructuredGrid"  version="0.1"  >
<UnstructuredGrid>
<Piece  NumberOfPoints="1404" NumberOfCells="2604">
<Points>
<DataArray  type="Float64"  NumberOfComponents="3"  format="ascii">0 0.41 0  0 0 0  2.2 0 0  2.2 0.41 0  0.2353553390593274 0.2353553390593274 0  0.25 0.2 0  0.2353553390593274 0.1646446609406726 0  0.2 0.15 0  0.1646446609406726 0.1646446609406726 0  0.15 0.2 0  0.1646446609406726 0.2353553390593274 0  0.2 0.25 0  0.6923879532511287 0.188268343236509 0  0.7 0.15 0  0.6923879532511287 0.1117316567634909 0  0.6707106781186547 0.07928932188134523 0  0.6382683432365089 0.05761204674887133 0  0.6 0.04999999999999999 0  0.5617316567634909 0.05761204674887134 0  0.5292893218813453 0.07928932188134524 0  0.5076120467488713 0.111731656763491 0  0.5 0.15 0  0.5076120467488713 0.188268343236509 0  0.5292893218813453 0.2207106781186547 0  0.561731656763491 0.2423879532511287 0  0.6 0.25 0  0.6382683432365089 0.2423879532511287 0  0.6707106781186547 0.2207106781186547 0  1.1 0 0  0 0.205 0  1.1 0.41 0  0.55 0 0  0.55 0.41 0  0.275 0 0  0.8250000000000001 0 0  0.275 0.41 0  0.8250000000000001 0.41 0  0.6875 0 0  0.61875 0 0  1.65 0.41 0  1.65 0 0  1.375 0 0  1.375 0.41 0  1.925 0 0  1.925 0.41 0  1.5125 0.205 0  1.7875 0.205 0  0.9625000000000001 0.205 0  1.2375 0.205 0  2.2 0.205 0  1.99375 0.2152743902439024 0  0.4125 0.41 0  2.0625 0 0  2.0625 0.41 0  2.2 0.3075 0  1.7875 0.41 0  1.375 0.1486128048780488 0  1.5125 0 0  1.7875 0 0  1.5125 0.41 0  0.9625000000000001 0.41 0  0.4125 0 0  0.1375 0 0  0.1375 0.41 0  0.6875 0.41 0  0.9625000000000001 0 0  1.2375 0 0  1.1 0.1486128048780488 0  1.2375 0.41 0  1.65 0.1486128048780487 0  0.823495464168302 0.2603780552348366 0  0.3738707794507017 0.2720196349488618 0  0.3662291281331582 0.1311456406657909 0  1.676715909090909 0.2793064024390244 0  1.126715909090909 0.2793064024390244 0  1.348284090909091 0.2793064024390244 0  0.8287581077665108 0.1302150898054257 0  1.894702181800738 0.1282910975492754 0  2.092797818199262 0.1282910975492754 0  1.85625 0.3075 0  0 0.3075 0  0 0.1025 0  2.099172119769978 0.25625 0  0.4752414543992246 0.3180372603390748 0  1.99375 0.08395950269330846 0  1.459960956013612 0.3075 0  1.569025960719943 0.2986889805672169 0  1.03125 0.3278689922742084 0  1.959375 0.3126371951219512 0  1.749222215368287 0.1025 0  1.275777784631713 0.1025 0  0.9228016959331474 0.3075 0  1.000777784631713 0.1025 0  2.2 0.1025 0  1.225938124459196 0.3075 0  1.550777784631713 0.1025 0  1.44375 0.07430640243902442 0  1.16875 0.07430640243902439 0  0.7562500000000001 0.3358727844323386 0  0.89375 0 0  1.899250267340833 0.2229966846119207 0  0.61875 0.41 0  1.766482954545455 0.2934032012195123 0  1.046078563095834 0.2389031808701145 0  1.421109702350723 0.2261157654379721 0  0.07567171807980319 0.25625 0  0.2511897295290552 0.3235829392832554 0  0.07655002503762308 0.1488653460959645 0  0.1377245246847496 0.3206030474919778 0  0.6694099692696568 0.3242771941727899 0  0.9168971191497528 0.1295727156104653 0  0.7562500000000001 0 0  2.118919042110979 0.3422084711244843 0  2.13125 0 0  0.06875000000000001 0 0  1.30625 0.41 0  1.597888256393107 0.2173787389261347 0  0.34375 0.41 0  0.2493272016354703 0.08091360081773515 0  0.5588896233436766 0.3264056208677571 0  1.829299675393195 0.07400700849299596 0  0.1334079128307869 0.08523463035786674 0  1.71875 0.41 0  0.06875000000000001 0.41 0  1.16875 0.41 0  2.038220665644273 0.332420740103091 0  0.8810647413215221 0.2027360103977071 0  0.34375 0 0  0.7453891198966415 0.2471459041008237 0  0.42112093004955 0.1988123139090554 0  0.8314023090855964 0.3351170841770613 0  0.89375 0.41 0  0.7906250000000001 0.06615386481594063 0  1.452769549894695 0.1548122580621249 0  1.369219062229598 0.07430640243902442 0  1.30625 0 0  1.07420695807087 0.07430640243902439 0  1.720943423819132 0.1714577452753128 0  1.157188124459196 0.205 0  1.304056576180868 0.1714577452753128 0  1.67579304192913 0.07430640243902437 0  1.209670467133757 0.136210026696477 0  0.4312800784902823 0.08036147352247747 0  0.8723959680194693 0.07066860609690805 0  1.025335513626278 0.1700681449722324 0  0.7945632284247136 0.1940204203251442 0  0.378125 0.3452261501101892 0  0.3307109909790086 0.2037165635083759 0  0.3009701032039409 0.2702970083403109 0  0.20625 0.41 0  1.58125 0 0  0.4812500000000001 0 0  0.9838963872396855 0.2722244191167347 0  0.06772484939107212 0.3260067317374387 0  0.20625 0 0  1.58125 0.41 0  1.631724228912893 0.3381867502687533 0  1.825608881788174 0.14499488549201 0  1.85625 0 0  1.44375 0 0  1.44375 0.41 0  1.85625 0.41 0  2.13125 0.41 0  0.7562500000000001 0.41 0  0.4812500000000001 0.41 0  1.16875 0 0  1.03125 0.41 0  1.03125 0 0  1.71875 0 0  1.99375 0 0  1.99375 0.41 0  0.9408708167433545 0.0651989315768642 0  1.340625 0.3489494290853124 0  1.134375 0.3489494290853123 0  1.700180620188976 0.3438659752031281 0  0.29668452290037 0.1318471691375986 0  0.3175441051360096 0.06496934809856265 0  0.06509151636162461 0.08140814015999148 0  2.135782184673599 0.07126652247502523 0  1.668441847249787 0.2129203728327609 0  1.295782514339747 0.2378437748815763 0  1.409375 0.3520314716057996 0  2.129248544730567 0.1906135162504124 0  2.060771381434487 0.1989445750470348 0  2.013252586573865 0.1496169464686054 0  1.942766402200229 0.1734448904596831 0  1.895522487186454 0.06076163953489683 0  2.069553871656643 0.06605731020975725 0  0.4670911801404742 0.2498408582391372 0  0.7622743084658112 0.1264100838268133 0  1.274680914880868 0.3520219391081363 0  0.3148669572599245 0.3331753056385887 0  1.614713220494657 0.09473434380863296 0  1.72990325744076 0.2380068107952482 0  1.356580098625191 0.2120393231351682 0  2.034370752044885 0.2668681600792073 0  1.51768709249349 0.3426260931494756 0  1.561883724969884 0.1650446847858835 0  1.197344062229598 0.2523725417393646 0  1.804085235518364 0.3468178408964637 0  1.817887819205233 0.2589243285818559 0  1.905897727272727 0.3485060975609756 0  0.7296439733931823 0.06337466644369745 0  0.4250935971865949 0.1394919578475796 0  0.3773030136511669 0.05130372097998036 0  1.192836486056382 0.3562350748565544 0  1.1029124365364 0.226143510831178 0  1.28257088594801 0.2944411014911587 0  0.1905185804731426 0.06029880676029167 0  1.474860187679412 0.2504218616229368 0  1.406767003493824 0.2829282258560709 0  0.5209826960981064 0.2830664557824064 0  0.5131119502780163 0.3617405848213254 0  0.1948220106098172 0.3081993407644811 0  1.845656689180403 0.1998310418452388 0  2.144958525570388 0.2909790873294231 0  2.2 0.15375 0  0.8833025251326762 0.2625402923007629 0  0.171875 0.3653875762360952 0  1.57794966442982 0.3540357145964566 0  0.446875 0.366068291212731 0  0.4272051715206439 0.2891929346190664 0  1.508991196088596 0.1421783375065625 0  1.50436820029908 0.06143401634903343 0  1.223857000523521 0.08235548624535324 0  0.6137904613287555 0.3066826366281556 0  1.153316824384777 0.1289850171317838 0  0.9751573703656133 0.327632618473408 0  2.148922302309752 0.1258841779285271 0  0.9281250000000001 0.3643758685795699 0  1.621993280276081 0.2841214267927899 0  1.550118654119087 0.2461998729100966 0  1.327182649291491 0.1216967252533594 0  0.9939955742738924 0.04663549843168518 0  1.753125 0.04556020050186112 0  1.271875 0.04556020050186116 0  0.9734326767716519 0.1506854560854393 0  0.103125 0.3675775577080512 0  1.94956388244759 0.1180512551534177 0  1.949997712993411 0.04965831614304109 0  0.717433898748555 0.295596016333797 0  1.771961817615021 0.1530278789497521 0  1.909246823951428 0.2812757146784527 0  0 0.35875 0  1.050632804931928 0.1226269704412814 0  0.05695108326502596 0.2024009637347154 0  1.948575539857022 0.2445328248721197 0  1.697271520964565 0.1233917627620729 0  1.065625 0.3689344961371042 0  1.085849084308977 0.3170853572226867 0  0.1015495998772944 0.04226029099983852 0  1.577403511714593 0.05463601888079143 0  1.751571320346033 0.3651102912045228 0  2.2 0.35875 0  0.7441773632462837 0.1786786606458751 0  0 0.05125 0  1.466879772203159 0.3611261772912453 0  0.6282230348858767 0.3577675483994025 0  1.990280163552011 0.3564754268533217 0  1.17471064520912 0.2990917256188288 0  0 0.25625 0  2.2 0.25625 0  2.2 0.05125 0  0 0.15375 0  1.853978576207987 0.35875 0  1.515638456102889 0.2882700110184686 0  2.150453692751374 0.2387066338105111 0  1.323782677156475 0.04897634338873398 0  1.409375 0.03715320121951221 0  1.406484531114799 0.1087852750766809 0  1.134375 0.03715320121951219 0  0.721875 0.3729363922161693 0  0.7941695928236929 0.3696489254637395 0  0.7934827162619036 0.3013409431456604 0  1.627401732573545 0.04552157221025036 0  0.9352049974617431 0.2507047965699472 0  0.8763260682738339 0.3611103317460093 0  2.045405893604797 0.1105340662939892 0  1.255408269734577 0.1577307500159216 0  2.028125 0.03707597992059326 0  1.003030137506755 0.3689344961371042 0  1.248258025468107 0.2565907092181813 0  1.203125 0.03661323374043041 0  0.4800125512335631 0.0549472816999725 0  2.072662025974815 0.2975086504196739 0  0.240625 0.3729825336867542 0  1.113252391110535 0.10238286244357 0  1.071052763974265 0.1885202618768825 0  0.8738809401657862 0.3106483608284829 0  0.6786819423003397 0.2677558482644021 0  1.887722846421017 0.1760882698830035 0  1.472640588990488 0.1118278026240017 0  0.5843750000000001 0.41 0  1.865937103925594 0.2604137786483804 0  1.463913572748262 0.2030442564990043 0  1.376426316059077 0.3186741374914345 0  0.1038643885363755 0.2162701735320032 0  0.1769473813227781 0.1070849728467114 0  0.458787839809176 0.171541653775316 0  0.240625 0 0  0.04179569703428024 0.2877217852556549 0  0.1258346557601885 0.2699740073054968 0  1.722140693354707 0.282908100935778 0  0.41206179117512 0.2448172567039922 0  0.3702471778075604 0.2265217604228704 0  0.3714881805374215 0.1786967818665642 0  1.77397096061971 0.2481483237422926 0  2.105123889160691 0.03743885948498647 0  1.001138337938679 0.229719337663998 0  1.051242910646791 0.2854826559431138 0  1.395420985247586 0.18
[...]
<PointData  Vectors="f_37"> 
<DataArray  type="Float64"  Name="f_37"  NumberOfComponents="3" format="ascii">1.6411617071317090e-07 -8.1084305944581769e-08 0.0000000000000000e+00  -4.2977663339758357e-06 -5.0817678903117985e-07 0.0000000000000000e+00  -1.0372379825269338e-06 1.5897753106533580e-09 0.0000000000000000e+00  -1.2977981206093850e-06 -1.6165477554754704e-09 0.0000000000000000e+00  1.7812830775174739e-06 -1.0685118788646940e-07 0.0000000000000000e+00  1.3539207868328342e-06 1.3314895266322156e-06 0.0000000000000000e+00  5.5270263242994065e-08 9.1660086316176974e-07 0.0000000000000000e+00  -3.0577220962292174e-06 3.9203379321183875e-07 0.0000000000000000e+00  1.9792674922824424e-06 3.0690387773308559e-07 0.0000000000000000e+00  -9.8540754052147875e-07 -3.1890596087261475e-06 0.0000000000000000e+00  -1.2876095311709233e-06 -1.3602301446598035e-07 0.0000000000000000e+00  1.1753910956224917e-06 7.3715019133049154e-08 0.0000000000000000e+00  2.4020592068602148e-06 -6.4742895102510685e-06 0.0000000000000000e+00  6.6653566491960449e-07 -5.1055908961142799e-06 0.0000000000000000e+00  -3.0318936250998474e-07 -2.0598353141519820e-06 0.0000000000000000e+00  6.9959779431430172e-07 1.0333500293831653e-06 0.0000000000000000e+00  4.1410606624560856e-06 1.0454739169445665e-06 0.0000000000000000e+00  3.0922695726021165e-01 8.3877211391549383e-02 0.0000000000000000e+00  3.6621719042135743e-06 1.3367770755061966e-06 0.0000000000000000e+00  2.2576212138847216e-06 9.1879907808165412e-07 0.0000000000000000e+00  -2.0257690920247408e-06 -6.4246080553479810e-06 0.0000000000000000e+00  1.5553453683034222e-06 5.5529021363025101e-06 0.0000000000000000e+00  7.4214771753081767e-06 8.1234815422367647e-06 0.0000000000000000e+00  4.7117443662851328e-06 -5.8620908873626985e-06 0.0000000000000000e+00  -6.7704607665756690e-06 -6.9021498979187720e-06 0.0000000000000000e+00  -9.8426065808426734e-06 1.2099695145279686e-07 0.0000000000000000e+00  -7.2130331714024876e-06 2.5564082306716529e-06 0.0000000000000000e+00  1.6568527872383687e-06 -2.3224091683479486e-06 0.0000000000000000e+00  -1.2464183369076137e-06 7.9702580015868402e-08 0.0000000000000000e+00  1.6583337778594293e-01 -4.9804801267672292e-07 0.0000000000000000e+00  -1.8369092663333895e-06 -2.3839085596939250e-08 0.0000000000000000e+00  5.6938705365111010e-06 9.0357125950375479e-07 0.0000000000000000e+00  -3.3508285455433635e-07 -3.2893822106818788e-07 0.0000000000000000e+00  1.2165862447495562e-07 7.9830723723174955e-08 0.0000000000000000e+00  -9.9197523359135058e-07 2.9038186466088199e-08 0.0000000000000000e+00  -1.9745252658796246e-06 -5.6260390760553941e-07 0.0000000000000000e+00  8.5810924907333228e-07 5.4620040496211555e-07 0.0000000000000000e+00  -1.6925524119608070e-06 -3.0004269222314416e-07 0.0000000000000000e+00  -5.5083979560730907e-06 -7.7062124413701146e-07 0.0000000000000000e+00  -1.4346865591878271e-06 8.2153558068320755e-10 0.0000000000000000e+00  -1.8685178142560401e-06 -2.6405550230600823e-09 0.0000000000000000e+00  -1.1413171678874679e-06 -3.3132346216852267e-09 0.0000000000000000e+00  -6.7459813909847011e-07 -5.2853013287661239e-09 0.0000000000000000e+00  -8.9464183760634326e-07 5.5124158837350473e-10 0.0000000000000000e+00  -3.1468764916286481e-07 -1.2306452194748575e-09 0.0000000000000000e+00  1.9933724130365724e-01 -4.2842774858483990e-05 0.0000000000000000e+00  1.9933140331973562e-01 1.3546951539375746e-05 0.0000000000000000e+00  2.0729678626080117e-01 -6.4367153261938648e-02 0.0000000000000000e+00  1.9956978301010950e-01 -2.5934913107124201e-03 0.0000000000000000e+00  1.9934571667130399e-01 -1.4068568872049069e-05 0.0000000000000000e+00  1.9933555944692252e-01 1.2111578481261318e-06 0.0000000000000000e+00  -8.9067784021117599e-07 7.3157765880489604e-08 0.0000000000000000e+00  -1.6382250409774583e-07 1.8124573327430067e-09 0.0000000000000000e+00  -9.5601183493995689e-07 3.0873894818017125e-09 0.0000000000000000e+00  1.9309186066203202e-01 -1.7899987635331224e-07 0.0000000000000000e+00  -1.2905590121819164e-06 -1.2154400280554535e-09 0.0000000000000000e+00  1.9863743152284938e-01 -3.4843099596314203e-04 0.0000000000000000e+00  -1.8102435898025856e-06 -9.0740568043771726e-10 0.0000000000000000e+00  -1.5374920385624305e-06 -1.1192487996232468e-09 0.0000000000000000e+00  -1.0681168974922646e-06 -3.1978096177194549e-09 0.0000000000000000e+00  -2.1428783853664638e-06 -1.8818049321796180e-07 0.0000000000000000e+00  -7.8018771431698397e-08 -3.1243827894921928e-07 0.0000000000000000e+00  -6.5405700888684108e-07 8.3756393208356310e-08 0.0000000000000000e+00  9.0961293421656171e-07 8.9115352092114885e-07 0.0000000000000000e+00  -1.1442250331282366e-06 -9.2470608097870278e-08 0.0000000000000000e+00  -2.9205082313219654e-06 2.2936995970278631e-07 0.0000000000000000e+00  5.4686383470432886e-07 -3.2994930276108847e-10 0.0000000000000000e+00  1.9283924088026902e-01 -1.1944841486721033e-02 0.0000000000000000e+00  -5.5053187946847802e-07 -5.6811247660859644e-09 0.0000000000000000e+00  1.9895149606122051e-01 8.5472109679007329e-06 0.0000000000000000e+00  3.3034679023907582e-01 -1.2436299895721134e-01 0.0000000000000000e+00  1.1488107225109812e-01 2.8276106064451311e-02 0.0000000000000000e+00  2.9149608287455592e-01 1.2660490687653408e-01 0.0000000000000000e+00  1.9806956497470107e-01 1.4490413655461774e-05 0.0000000000000000e+00  2.0524434182782417e-01 -5.0708977098313972e-03 0.0000000000000000e+00  1.9859216654654102e-01 -3.4956120648411434e-04 0.0000000000000000e+00  5.0823457934731399e-02 -1.4920990219704078e-02 0.0000000000000000e+00  1.9786790517737154e-01 1.9715529019263864e-05 0.0000000000000000e+00  1.9782796890793283e-01 -2.8264027115402473e-06 0.0000000000000000e+00  1.9310534680175628e-01 1.7178287291646124e-06 0.0000000000000000e+00  7.5234711794454012e-02 4.5555679956835468e-07 0.0000000000000000e+00  2.7319266476165149e-01 -2.5650263836221743e-07 0.0000000000000000e+00  1.9907048912373551e-01 -5.2602239593098669e-06 0.0000000000000000e+00  2.8250836406395791e-01 8.4224188393257973e-02 0.0000000000000000e+00  1.8421744385754740e-01 -9.0496823279595256e-06 0.0000000000000000e+00  1.9318571908321222e-01 1.2886331038224148e-05 0.0000000000000000e+00  1.9542252050756076e-01 2.4414462013364554e-05 0.0000000000000000e+00  1.9826125014055818e-01 -2.7675538402938109e-03 0.0000000000000000e+00  1.9129169051767306e-01 -1.1531238346071201e-06 0.0000000000000000e+00  1.9313073559158511e-01 -3.1559663504537031e-06 0.0000000000000000e+00  1.9185452684421953e-01 -7.4445913603419557e-04 0.0000000000000000e+00  2.6762851799777843e-01 -3.6288284349943078e-02 0.0000000000000000e+00  1.6463006644684658e-01 -2.2617579199894239e-02 0.0000000000000000e+00  1.9312141041636757e-01 -1.1044458953610992e-05 0.0000000000000000e+00  1.9524071649998370e-01 -9.1215529458353118e-04 0.0000000000000000e+00  1.9300938978663201e-01 1.9046047454692770e-05 0.0000000000000000e+00  1.7641483834411972e-01 3.1617707310846800e-05 0.0000000000000000e+00  1.7277924662405839e-01 -1.8388795704300355e-03 0.0000000000000000e+00  3.9679992953744725e-01 -6.9024940819607777e-02 0.0000000000000000e+00  -2.7308670199959929e-06 2.0224372967128062e-07 0.0000000000000000e+00  1.9933396945711615e-01 4.9805917045760999e-06 0.0000000000000000e+00  1.2179531289523254e-07 -1.5005303117209029e-07 0.0000000000000000e+00  1.9633566228467964e-01 3.7329571260011871e-05 0.0000000000000000e+00  2.1243657579392097e-01 -2.0643300768953987e-02 0.0000000000000000e+00  1.9939757628067897e-01 -2.0827112614751190e-04 0.0000000000000000e+00  1.2802880644601738e-01 6.8991008767294304e-02 0.0000000000000000e+00  2.3385428021896068e-01 1.8836931578053127e-02 0.0000000000000000e+00  2.0909052290787983e-01 2.4858118897499917e-02 0.0000000000000000e+00  1.4860077619122147e-01 8.1246259584882574e-02 0.0000000000000000e+00  4.6188609505170242e-01 -3.9139834714352506e-02 0.0000000000000000e+00  1.3312774616185416e-01 -5.2359981223047719e-02 0.0000000000000000e+00  6.7258630381136611e-08 -4.3537826073380224e-08 0.0000000000000000e+00  1.6960658833413184e-01 1.1265102980858470e-05 0.0000000000000000e+00  -2.2254462120016333e-06 -6.7038422762441142e-09 0.0000000000000000e+00  -9.9692655397556618e-07 1.2000969136478974e-09 0.0000000000000000e+00  -4.4370672294687289e-07 -2.1270132193463482e-09 0.0000000000000000e+00  1.9932524858231596e-01 9.2357940722354009e-06 0.0000000000000000e+00  -2.1855620033679547e-06 1.9035658668732313e-08 0.0000000000000000e+00  3.9882676286901853e-01 5.3077515626790001e-02 0.0000000000000000e+00  4.0422660698213669e-01 6.6564024229491980e-02 0.0000000000000000e+00  1.7622013764620156e-01 -8.7314656568095019e-06 0.0000000000000000e+00  3.4402420550688795e-01 1.5809835425185013e-02 0.0000000000000000e+00  -1.5110778080754251e-06 -2.3946577134207348e-10 0.0000000000000000e+00  1.2361004337870718e-06 4.3368890055604795e-07 0.0000000000000000e+00  -1.1371304645690052e-06 -4.4154778253289655e-09 0.0000000000000000e+00  1.7938707915042670e-01 -3.6351581081488017e-06 0.0000000000000000e+00  1.8868242197021609e-01 -1.1467853516798963e-01 0.0000000000000000e+00  1.3975320069551186e-07 -5.7207534590665096e-07 0.0000000000000000e+00  2.2395995441046132e-01 -6.2750729991061516e-02 0.0000000000000000e+00  1.6180110345129348e-01 1.7095610379213058e-01 0.0000000000000000e+00  3.1118253813100272e-01 -5.8204584018720744e-02 0.0000000000000000e+00  2.1749233723312180e-06 -2.6870011185661587e-08 0.0000000000000000e+00  1.0706597958213346e-01 3.2995016038713361e-02 0.0000000000000000e+00  1.9899012507810729e-01 -9.1153282542771175e-05 0.0000000000000000e+00  1.7628430407269904e-01 -3.2029833705729576e-05 0.0000000000000000e+00  -1.4123702036041721e-07 -1.6293393046429998e-09 0.0000000000000000e+00  1.6451329302901169e-01 -6.5366967551613803e-03 0.0000000000000000e+00  1.9925314720627896e-01 7.2758576458669201e-06 0.0000000000000000e+00  2.0021196625509524e-01 -6.6916576120987122e-03 0.0000000000000000e+00  1.9885840394648957e-01 -1.0954380028705727e-03 0.0000000000000000e+00  1.7643828543278539e-01 5.7237698552503454e-06 0.0000000000000000e+00  1.9608653164847209e-01 -2.9013513885545522e-03 0.0000000000000000e+00  1.9966222649340820e-01 9.4976053360106075e-03 0.0000000000000000e+00  1.0043526753390784e-01 -9.5474934930574983e-03 0.0000000000000000e+00  1.9206688720882176e-01 -3.0209901656029683e-02 0.0000000000000000e+00  8.2290344097347798e-02 -4.6482645517758964e-02 0.0000000000000000e+00  2.2639383007798494e-01 9.8492585559301783e-03 0.0000000000000000e+00  5.5187212800771053e-02 4.7105377219275074e-02 0.0000000000000000e+00  8.6395649070081959e-02 -1.9465546057393299e-02 0.0000000000000000e+00  -2.6445523927735373e-06 -2.6406030229556641e-07 0.0000000000000000e+00  -8.9585521974062660e-07 -2.8416665972797329e-09 0.0000000000000000e+00  -1.2763202530395154e-06 7.0046491894864981e-07 0.0000000000000000e+00  2.3855992248101068e-01 -3.0151831522151333e-02 0.0000000000000000e+00  7.8351123021784930e-02 2.5628048735343401e-02 0.0000000000000000e+00  -2.2189005102960901e-06 3.6326415545844337e-08 0.0000000000000000e+00  -1.1050160128510651e-06 5.0224795153049944e-11 0.0000000000000000e+00  1.7399538737330073e-01 2.2257191046278190e-05 0.0000000000000000e+00  1.9879496140478173e-01 9.5047339241240764e-06 0.0000000000000000e+00  -1.1431517045999745e-06 7.8372941395401814e-10 0.0000000000000000e+00  -1.4136184957659270e-06 -1.0323330696964703e-09 0.0000000000000000e+00  -1.2798204998572259e-06 -2.4239642328789082e-09 0.0000000000000000e+00  -4.2318173447397640e-07 5.6966237867231259e-10 0.0000000000000000e+00  -4.0648597219229743e-07 -8.8813004289383077e-10 0.0000000000000000e+00  1.6699789650155595e-06 -1.3099774595250986e-08 0.0000000000000000e+00  -3.3622385466086622e-06 -3.2397519997299524e-07 0.0000000000000000e+00  -8.2827369540137127e-07 3.1885717045255969e-08 0.0000000000000000e+00  -1.8658243187702629e-06 -1.2471855352886801e-07 0.0000000000000000e+00  -7.8395191312728860e-07 1.4485482243677407e-07 0.0000000000000000e+00  -1.1271553771046310e-07 -9.1908032564868723e-10 0.0000000000000000e+00  -1.4517605828136924e-06 2.4095301064968615e-09 0.0000000000000000e+00  -6.3888092019328547e-07 -1.2054041512631057e-09 0.0000000000000000e+00  1.2092787685119299e-01 -1.6740385206278685e-02 0.0000000000000000e+00  1.6107935766364506e-01 3.2930213291351776e-05 0.0000000000000000e+00  1.6365321452774906e-01 -2.8836626549034902e-04 0.0000000000000000e+00  1.6764330873493433e-01 1.2358770925532485e-05 0.0000000000000000e+00  3.0488071280691936e-01 9.9297616941259534e-02 0.0000000000000000e+00  3.1053571520625600e-01 5.8981221346721228e-02 0.0000000000000000e+00  3.1559633663478520e-01 2.6704165085555558e-02 0.0000000000000000e+00  1.7346925234328575e-01 4.1745048643315315e-06 0.0000000000000000e+00  1.9933105112972938e-01 1.5300823845256249e-05 0.0000000000000000e+00  1.9985135041615770e-01 -1.1202002505227347e-03 0.0000000000000000e+00  1.5644153811062647e-01 3.4771114608383876e-05 0.0000000000000000e+00  1.9934223997703079e-01 -9.2750499536150242e-06 0.0000000000000000e+00  1.9933877396463454e-01 -8.5035822787792175e-06 0.0000000000000000e+00  1.9894856978638517e-01 -2.6344900978758311e-06 0.0000000000000000e+00  1.9927668782192426e-01 3.8606819960331686e-06 0.0000000000000000e+00  1.6065244315455640e-01 -2.9828948811209722e-06 0.0000000000000000e+00  1.6753206153749342e-01 -3.3296073989410763e-06 0.0000000000000000e+00  2.1227702336221990e-01 1.8773334638724903e-01 0.0000000000000000e+00  8.8164207716852766e-03 4.3359050686949195e-02 0.0000000000000000e+00  1.5675996411394744e-01 1.2806959446852662e-05 0.0000000000000000e+00  2.2920349114070757e-01 -1.1292645459992409e-02 0.0000000000000000e+00  1.9022154912443537e-01 2.3173673849854384e-05 0.0000000000000000e+00  1.9927008947349567e-01 1.3778918383022361e-05 0.0000000000000000e+00  1.9942102927363839e-01 -5.6307671865297342e-04 0.0000000000000000e+00  1.9879700405738415e-01 1.6466238492949570e-06 0.0000000000000000e+00  1.6903665097974202e-01 5.1669909061620565e-05 0.0000000000000000e+00  1.9920735977710738e-01 -1.7213464411751426e-06 0.0000000000000000e+00  2.0163997346332602e-01 -3.2509480037076609e-03 0.0000000000000000e+00  1.6388702344163600e-01 1.6134080720614458e-06 0.0000000000000000e+00  1.9900371389918328e-01 1.2294921464348761e-05 0.0000000000000000e+00  1.6164505290490996e-01 -6.5560823312879351e-07 0.0000000000000000e+00  1.4290621249819277e-01 6.7137669594250618e-02 0.0000000000000000e+00  2.1104085134870590e-01 1.1642782011385611e-01 0.0000000000000000e+00  1.8902383708751469e-01 2.4970041452277273e-02 0.0000000000000000e+00  1.5059292365770785e-01 -4.0335138302038563e-05 0.0000000000000000e+00  2.0422447585982725e-01 -1.1562857758939568e-02 0.0000000000000000e+00  1.9737202473459051e-01 -6.2668471824922872e-04 0.0000000000000000e+00  3.8919526889015171e-01 2.2729080563979032e-02 0.0000000000000000e+00  1.9922599813613395e-01 -5.6466143038071308e-05 0.0000000000000000e+00  1.9796529448172434e-01 -1.1954055153903406e-04 0.0000000000000000e+00  3.4677402699131987e-01 1.6023829477358917e-01 0.0000000000000000e+00  3.0692696955815751e-01 3.6951613866912460e-02 0.0000000000000000e+00  2.3285051083211256e-01 8.9230421107314870e-02 0.0000000000000000e+00  1.9932991284099608e-01 1.4129478498554096e-05 0.0000000000000000e+00  1.9681132857343550e-01 -1.6015308672396015e-05 0.0000000000000000e+00  1.9908846191428223e-01 -7.0985642066145259e-06 0.0000000000000000e+00  3.0411533310600969e-01 -1.0476399735797325e-01 0.0000000000000000e+00  1.2734334090351404e-01 3.4643290735206708e-02 0.0000000000000000e+00  1.5334219322735540e-01 2.5151298605488985e-05 0.0000000000000000e+00  2.3081835532981021e-01 2.5772211473005575e-02 0.0000000000000000e+00  1.9308166402280177e-01 7.6651078600361550e-02 0.0000000000000000e+00  1.9867317799386475e-01 -1.0302568967188668e-05 0.0000000000000000e+00  1.6161297202324054e-01 2.1790077246682652e-05 0.0000000000000000e+00  1.8107500091463810e-01 -1.0030761254070342e-03 0.0000000000000000e+00  4.6744275562388515e-01 2.2028214965913083e-02 0.0000000000000000e+00  1.9322688760033171e-01 -5.5282739130040641e-03 0.0000000000000000e+00  2.1222926337010298e-01 -6.6525285040208593e-03 0.0000000000000000e+00  1.9763555937357441e-01 3.0506099717166622e-06 0.0000000000000000e+00  1.4534569538640846e-01 -2.6955768159676826e-03 0.0000000000000000e+00  1.9758983870650260e-01 1.0410299643353712e-05 0.0000000000000000e+00  1.9921730012166020e-01 -2.4445961239086490e-06 0.0000000000000000e+00  1.9643857812299567e-01 -5.0276731302685768e-04 0.0000000000000000e+00  1.1439976658776829e-01 -7.3668609695083489e-03 0.0000000000000000e+00  1.3450571766925559e-01 -4.4673677037361089e-06 0.0000000000000000e+00  1.3435448499679006e-01 -7.8868056897411510e-05 0.0000000000000000e+00  1.7337589264509554e-01 -4.6615652589019715e-02 0.0000000000000000e+00  5.6392008503996102e-02 1.7057604583213076e-02 0.0000000000000000e+00  1.9655589020343484e-01 2.1676269077120727e-06 0.0000000000000000e+00  1.4252732069381543e-01 5.7259275758539662e-06 0.0000000000000000e+00  4.2636549721444084e-01 -7.7827664502814198e-02 0.0000000000000000e+00  1.9903034744302961e-01 7.8059595016006538e-06 0.0000000000000000e+00  1.9787823993922266e-01 -8.4399602519931211e-06 0.0000000000000000e+00  3.5785265535228379e-02 4.6254043447383446e-07 0.0000000000000000e+00  1.8232674840717703e-01 -1.7246117921704957e-02 0.0000000000000000e+00  1.5953634293810401e-01 4.1449706571909710e-02 0.0000000000000000e+00  1.9923584370852454e-01 7.2107681137324780e-06 0.0000000000000000e+00  1.9736778990734244e-01 6.1180047217981466e-06 0.0000000000000000e+00  1.2598823280811655e-01 4.2988134341795321e-04 0.0000000000000000e+00  1.9919541390689433e-01 -2.9294000394648862e-03 0.0000000000000000e+00  3.8028506406537643e-01 3.6650706964390718e-02 0.0000000000000000e+00  1.5132047529635351e-01 3.7783216409528305e-05 0.0000000000000000e+00  1.3305696567715775e-01 1.4462394131714912e-05 0.0000000000000000e+00  1.4531231471631453e-01 -4.0028004481665076e-07 0.0000000000000000e+00  -1.3588318048088131e-03 3.6900867448344560e-02 0.0000000000000000e+00  3.3356390727965146e-01 -2.5263656751932850e-07 0.0000000000000000e+00  1.4087376594754697e-01 5.5627137585129448e-05 0.0000000000000000e+00  4.0722700044480992e-01 -8.9083297648315796e-03 0.0000000000000000e+00  1.4937551995770290e-01 1.1116103327645783e-05 0.0000000000000000e+00  1.9943257713902912e-01 -2.0338252140096867e-03 0.0000000000000000e+00  1.1852643591340692e-01 1.6160582833412285e-07 0.0000000000000000e+00  1.9907074606832870e-01 -5.1462289479677326e-06 0.0000000000000000e+00  1.4536177378629309e-01 2.6600579615434826e-06 0.0000000000000000e+00  2.1733319398904719e-01 -2.3864788804322790e-07 0.0000000000000000e+00  1.4537163675693779e-01 -1.1001356870107554e-05 0.0000000000000000e+00  1.9718741945532919e-01 2.5733990665205223e-05 0.0000000000000000e+00  1.9926588605664997e-01 -4.9475399829400990e-06 0.0000000000000000e+00  1.4120799269826800e-01 -1.4609179906272151e-06 0.0000000000000000e+00  1.1593739937525814e-01 3.9402972555545951e-05 0.0000000000000000e+00  1.9462178310703923e-01 -9.9323366295357406e-05 0.0000000000000000e+00  1.1343038258927444e-01 -7.9211209772683366e-04 0.0000000000000000e+00  2.8303552332918208e-01 -2.6957476430765785e-02 0.0000000000000000e+00  2.1709157042680036e-01 -2.6031953397912679e-02 0.0000000000000000e+00  4.0097878933677300e-01 -1.0198465682613198e-01 0.0000000000000000e+00  1.3443270882808439e-01 5.6652737053354899e-06 0.0000000000000000e+00  2.5716802811364592e-01 -7.2290161335025541e-02 0.0000000000000000e+00  1.7762238734072047e-01 -1.4971851410255671e-02 0.0000000000000000e+00  1.9524902605837974e-01 5.2742880864774772e-07 0.0000000000000000e+00  1.9812409090546804e-01 -1.9016894665045284e-03 0.0000000000000000e+00  1.1561127751888929e-01 9.0256408993522055e-06 0.0000000000000000e+00  1.2664106862961413e-01 9.0772846444692190e-04 0.0000000000000000e+00  2.00486946