<?xml version="1.0"?>
<VTKFile type="UnstructuredGrid"  version="0.1"  >
<UnstructuredGrid>
<Piece  NumberOfPoints="1404" NumberOfCells="2604">
<Points>
<DataArray  type="Float64"  NumberOfComponents="3"  format="ascii">0 0.41 0  0 0 0  2.2 0 0  2.2 0.41 0  0.2353553390593274 0.2353553390593274 0  0.25 0.2 0  0.2353553390593274 0.1646446609406726 0  0.2 0.15 0  0.1646446609406726 0.1646446609406726 0  0.15 0.2 0  0.1646446609406726 0.2353553390593274 0  0.2 0.25 0  0.6923879532511287 0.188268343236509 0  0.7 0.15 0  0.6923879532511287 0.1117316567634909 0  0.6707106781186547 0.07928932188134523 0  0.6382683432365089 0.05761204674887133 0  0.6 0.04999999999999999 0  0.5617316567634909 0.05761204674887134 0  0.5292893218813453 0.07928932188134524 0  0.5076120467488713 0.111731656763491 0  0.5 0.15 0  0.5076120467488713 0.188268343236509 0  0.5292893218813453 0.2207106781186547 0  0.561731656763491 0.2423879532511287 0  0.6 0.25 0  0.6382683432365089 0.2423879532511287 0  0.6707106781186547 0.2207106781186547 0  1.1 0 0  0 0.205 0  1.1 0.41 0  0.55 0 0  0.55 0.41 0  0.275 0 0  0.8250000000000001 0 0  0.275 0.41 0  0.8250000000000001 0.41 0  0.6875 0 0  0.61875 0 0  1.65 0.41 0  1.65 0 0  1.375 0 0  1.375 0.41 0  1.925 0 0  1.925 0.41 0  1.5125 0.205 0  1.7875 0.205 0  0.9625000000000001 0.205 0  1.2375 0.205 0  2.2 0.205 0  1.99375 0.2152743902439024 0  0.4125 0.41 0  2.0625 0 0  2.0625 0.41 0  2.2 0.3075 0  1.7875 0.41 0  1.375 0.1486128048780488 0  1.5125 0 0  1.7875 0 0  1.5125 0.41 0  0.9625000000000001 0.41 0  0.4125 0 0  0.1375 0 0  0.1375 0.41 0  0.6875 0.41 0  0.9625000000000001 0 0  1.2375 0 0  1.1 0.1486128048780488 0  1.2375 0.41 0  1.65 0.1486128048780487 0  0.823495464168302 0.2603780552348366 0  0.3738707794507017 0.2720196349488618 0  0.3662291281331582 0.1311456406657909 0  1.676715909090909 0.2793064024390244 0  1.126715909090909 0.2793064024390244 0  1.348284090909091 0.2793064024390244 0  0.8287581077665108 0.1302150898054257 0  1.894702181800738 0.1282910975492754 0  2.092797818199262 0.1282910975492754 0  1.85625 0.3075 0  0 0.3075 0  0 0.1025 0  2.099172119769978 0.25625 0  0.4752414543992246 0.3180372603390748 0  1.99375 0.08395950269330846 0  1.459960956013612 0.3075 0  1.569025960719943 0.2986889805672169 0  1.03125 0.3278689922742084 0  1.959375 0.3126371951219512 0  1.749222215368287 0.1025 0  1.275777784631713 0.1025 0  0.9228016959331474 0.3075 0  1.000777784631713 0.1025 0  2.2 0.1025 0  1.225938124459196 0.3075 0  1.550777784631713 0.1025 0  1.44375 0.07430640243902442 0  1.16875 0.07430640243902439 0  0.7562500000000001 0.3358727844323386 0  0.89375 0 0  1.899250267340833 0.2229966846119207 0  0.61875 0.41 0  1.766482954545455 0.2934032012195123 0  1.046078563095834 0.2389031808701145 0  1.421109702350723 0.2261157654379721 0  0.07567171807980319 0.25625 0  0.2511897295290552 0.3235829392832554 0  0.07655002503762308 0.1488653460959645 0  0.1377245246847496 0.3206030474919778 0  0.6694099692696568 0.3242771941727899 0  0.9168971191497528 0.1295727156104653 0  0.7562500000000001 0 0  2.118919042110979 0.3422084711244843 0  2.13125 0 0  0.06875000000000001 0 0  1.30625 0.41 0  1.597888256393107 0.2173787389261347 0  0.34375 0.41 0  0.2493272016354703 0.08091360081773515 0  0.5588896233436766 0.3264056208677571 0  1.829299675393195 0.07400700849299596 0  0.1334079128307869 0.08523463035786674 0  1.71875 0.41 0  0.06875000000000001 0.41 0  1.16875 0.41 0  2.038220665644273 0.332420740103091 0  0.8810647413215221 0.2027360103977071 0  0.34375 0 0  0.7453891198966415 0.2471459041008237 0  0.42112093004955 0.1988123139090554 0  0.8314023090855964 0.3351170841770613 0  0.89375 0.41 0  0.7906250000000001 0.06615386481594063 0  1.452769549894695 0.1548122580621249 0  1.369219062229598 0.07430640243902442 0  1.30625 0 0  1.07420695807087 0.07430640243902439 0  1.720943423819132 0.1714577452753128 0  1.157188124459196 0.205 0  1.304056576180868 0.1714577452753128 0  1.67579304192913 0.07430640243902437 0  1.209670467133757 0.136210026696477 0  0.4312800784902823 0.08036147352247747 0  0.8723959680194693 0.07066860609690805 0  1.025335513626278 0.1700681449722324 0  0.7945632284247136 0.1940204203251442 0  0.378125 0.3452261501101892 0  0.3307109909790086 0.2037165635083759 0  0.3009701032039409 0.2702970083403109 0  0.20625 0.41 0  1.58125 0 0  0.4812500000000001 0 0  0.9838963872396855 0.2722244191167347 0  0.06772484939107212 0.3260067317374387 0  0.20625 0 0  1.58125 0.41 0  1.631724228912893 0.3381867502687533 0  1.825608881788174 0.14499488549201 0  1.85625 0 0  1.44375 0 0  1.44375 0.41 0  1.85625 0.41 0  2.13125 0.41 0  0.7562500000000001 0.41 0  0.4812500000000001 0.41 0  1.16875 0 0  1.03125 0.41 0  1.03125 0 0  1.71875 0 0  1.99375 0 0  1.99375 0.41 0  0.9408708167433545 0.0651989315768642 0  1.340625 0.3489494290853124 0  1.134375 0.3489494290853123 0  1.700180620188976 0.3438659752031281 0  0.29668452290037 0.1318471691375986 0  0.3175441051360096 0.06496934809856265 0  0.06509151636162461 0.08140814015999148 0  2.135782184673599 0.07126652247502523 0  1.668441847249787 0.2129203728327609 0  1.295782514339747 0.2378437748815763 0  1.409375 0.3520314716057996 0  2.129248544730567 0.1906135162504124 0  2.060771381434487 0.1989445750470348 0  2.013252586573865 0.1496169464686054 0  1.942766402200229 0.1734448904596831 0  1.895522487186454 0.06076163953489683 0  2.069553871656643 0.06605731020975725 0  0.4670911801404742 0.2498408582391372 0  0.7622743084658112 0.1264100838268133 0  1.274680914880868 0.3520219391081363 0  0.3148669572599245 0.3331753056385887 0  1.614713220494657 0.09473434380863296 0  1.72990325744076 0.2380068107952482 0  1.356580098625191 0.2120393231351682 0  2.034370752044885 0.2668681600792073 0  1.51768709249349 0.3426260931494756 0  1.561883724969884 0.1650446847858835 0  1.197344062229598 0.2523725417393646 0  1.804085235518364 0.3468178408964637 0  1.817887819205233 0.2589243285818559 0  1.905897727272727 0.3485060975609756 0  0.7296439733931823 0.06337466644369745 0  0.4250935971865949 0.1394919578475796 0  0.3773030136511669 0.05130372097998036 0  1.192836486056382 0.3562350748565544 0  1.1029124365364 0.226143510831178 0  1.28257088594801 0.2944411014911587 0  0.1905185804731426 0.06029880676029167 0  1.474860187679412 0.2504218616229368 0  1.406767003493824 0.2829282258560709 0  0.5209826960981064 0.2830664557824064 0  0.5131119502780163 0.3617405848213254 0  0.1948220106098172 0.3081993407644811 0  1.845656689180403 0.1998310418452388 0  2.144958525570388 0.2909790873294231 0  2.2 0.15375 0  0.8833025251326762 0.2625402923007629 0  0.171875 0.3653875762360952 0  1.57794966442982 0.3540357145964566 0  0.446875 0.366068291212731 0  0.4272051715206439 0.2891929346190664 0  1.508991196088596 0.1421783375065625 0  1.50436820029908 0.06143401634903343 0  1.223857000523521 0.08235548624535324 0  0.6137904613287555 0.3066826366281556 0  1.153316824384777 0.1289850171317838 0  0.9751573703656133 0.327632618473408 0  2.148922302309752 0.1258841779285271 0  0.9281250000000001 0.3643758685795699 0  1.621993280276081 0.2841214267927899 0  1.550118654119087 0.2461998729100966 0  1.327182649291491 0.1216967252533594 0  0.9939955742738924 0.04663549843168518 0  1.753125 0.04556020050186112 0  1.271875 0.04556020050186116 0  0.9734326767716519 0.1506854560854393 0  0.103125 0.3675775577080512 0  1.94956388244759 0.1180512551534177 0  1.949997712993411 0.04965831614304109 0  0.717433898748555 0.295596016333797 0  1.771961817615021 0.1530278789497521 0  1.909246823951428 0.2812757146784527 0  0 0.35875 0  1.050632804931928 0.1226269704412814 0  0.05695108326502596 0.2024009637347154 0  1.948575539857022 0.2445328248721197 0  1.697271520964565 0.1233917627620729 0  1.065625 0.3689344961371042 0  1.085849084308977 0.3170853572226867 0  0.1015495998772944 0.04226029099983852 0  1.577403511714593 0.05463601888079143 0  1.751571320346033 0.3651102912045228 0  2.2 0.35875 0  0.7441773632462837 0.1786786606458751 0  0 0.05125 0  1.466879772203159 0.3611261772912453 0  0.6282230348858767 0.3577675483994025 0  1.990280163552011 0.3564754268533217 0  1.17471064520912 0.2990917256188288 0  0 0.25625 0  2.2 0.25625 0  2.2 0.05125 0  0 0.15375 0  1.853978576207987 0.35875 0  1.515638456102889 0.2882700110184686 0  2.150453692751374 0.2387066338105111 0  1.323782677156475 0.04897634338873398 0  1.409375 0.03715320121951221 0  1.406484531114799 0.1087852750766809 0  1.134375 0.03715320121951219 0  0.721875 0.3729363922161693 0  0.7941695928236929 0.3696489254637395 0  0.7934827162619036 0.3013409431456604 0  1.627401732573545 0.04552157221025036 0  0.9352049974617431 0.2507047965699472 0  0.8763260682738339 0.3611103317460093 0  2.045405893604797 0.1105340662939892 0  1.255408269734577 0.1577307500159216 0  2.028125 0.03707597992059326 0  1.003030137506755 0.3689344961371042 0  1.248258025468107 0.2565907092181813 0  1.203125 0.03661323374043041 0  0.4800125512335631 0.0549472816999725 0  2.072662025974815 0.2975086504196739 0  0.240625 0.3729825336867542 0  1.113252391110535 0.10238286244357 0  1.071052763974265 0.1885202618768825 0  0.8738809401657862 0.3106483608284829 0  0.6786819423003397 0.2677558482644021 0  1.887722846421017 0.1760882698830035 0  1.472640588990488 0.1118278026240017 0  0.5843750000000001 0.41 0  1.865937103925594 0.2604137786483804 0  1.463913572748262 0.2030442564990043 0  1.376426316059077 0.3186741374914345 0  0.1038643885363755 0.2162701735320032 0  0.1769473813227781 0.1070849728467114 0  0.458787839809176 0.171541653775316 0  0.240625 0 0  0.04179569703428024 0.2877217852556549 0  0.1258346557601885 0.2699740073054968 0  1.722140693354707 0.282908100935778 0  0.41206179117512 0.2448172567039922 0  0.3702471778075604 0.2265217604228704 0  0.3714881805374215 0.1786967818665642 0  1.77397096061971 0.2481483237422926 0  2.105123889160691 0.03743885948498647 0  1.001138337938679 0.229719337663998 0  1.051242910646791 0.2854826559431138 0  1.395420985247586 0.18
[...]
<PointData  Vectors="f_37"> 
<DataArray  type="Float64"  Name="f_37"  NumberOfComponents="3" format="ascii">2.4949209457241483e-07 4.5754350862116202e-08 0.0000000000000000e+00  -4.4457008491298693e-06 -3.5387121691956924e-07 0.0000000000000000e+00  -6.4702487667166688e-07 5.4976931109142416e-09 0.0000000000000000e+00  -7.8157746135493247e-07 1.4204392113107116e-09 0.0000000000000000e+00  -5.5905503155653304e-08 3.0622419240652283e-07 0.0000000000000000e+00  1.1956476487539875e-07 -6.9259678357185677e-08 0.0000000000000000e+00  1.2774835290915487e-07 1.6431288768490368e-07 0.0000000000000000e+00  -9.1025366878908833e-07 -9.9833812612967779e-08 0.0000000000000000e+00  -8.5429838442747962e-07 -1.3316672605116736e-07 0.0000000000000000e+00  1.2790790084280010e-07 -4.5808829608658996e-07 0.0000000000000000e+00  -9.3837511796910917e-07 -5.2532345520008775e-07 0.0000000000000000e+00  -1.0716286260359061e-06 -2.5329369123456805e-07 0.0000000000000000e+00  4.2267916568832440e-07 -9.3924069906132104e-08 0.0000000000000000e+00  -3.5013879160334876e-07 -5.2499663225935282e-07 0.0000000000000000e+00  -4.0119424808071230e-07 -1.2193084490579379e-07 0.0000000000000000e+00  -9.1639883356329864e-07 -1.9618412039410904e-07 0.0000000000000000e+00  2.3778066725920663e-06 4.3153984838441350e-07 0.0000000000000000e+00  3.4752052985911253e-01 9.6683505385939769e-02 0.0000000000000000e+00  1.6958477264844667e-06 -3.2841553034324796e-08 0.0000000000000000e+00  -1.0992215957625044e-06 3.9511656892021755e-07 0.0000000000000000e+00  -1.2758911935261231e-06 -4.3429507457538386e-07 0.0000000000000000e+00  -8.0261261282730069e-08 -6.2319151903473901e-07 0.0000000000000000e+00  4.1039030809802417e-07 2.6081867931855997e-08 0.0000000000000000e+00  -4.8827989850988819e-07 -1.7809975227743837e-06 0.0000000000000000e+00  -3.1174512865164507e-06 -1.5728764767272038e-06 0.0000000000000000e+00  -4.5330976087166971e-06 -4.2000448094724367e-07 0.0000000000000000e+00  -4.4759629020702482e-06 -1.3424098879746868e-07 0.0000000000000000e+00  -3.0716124614598912e-07 8.3008863544627539e-08 0.0000000000000000e+00  -2.7621347758480422e-07 9.6464718216128219e-08 0.0000000000000000e+00  1.6583343028344719e-01 -4.3376155578824300e-07 0.0000000000000000e+00  -9.3087288952785248e-07 -5.1814516465313171e-08 0.0000000000000000e+00  3.0843960760590668e-06 1.2275964433367235e-07 0.0000000000000000e+00  -5.5505036831045329e-07 -8.3708036248602922e-08 0.0000000000000000e+00  4.2177865719968035e-07 4.4568988049208918e-08 0.0000000000000000e+00  -1.7743496429404521e-07 -5.0462802237010694e-08 0.0000000000000000e+00  -1.0262458216001890e-06 3.6706698648857691e-09 0.0000000000000000e+00  -1.4982018894735478e-06 6.9361924092652300e-08 0.0000000000000000e+00  -2.5879249189316645e-06 -4.7659604763922620e-07 0.0000000000000000e+00  -8.7607540788575087e-06 -1.1511683719618614e-06 0.0000000000000000e+00  -1.2856992820958191e-06 -1.9506742118987549e-07 0.0000000000000000e+00  -1.4687723663866493e-06 4.8473748547957704e-08 0.0000000000000000e+00  1.5803653189838696e-07 -1.6545904821335446e-07 0.0000000000000000e+00  -5.6320869522108971e-08 6.5199397470156911e-08 0.0000000000000000e+00  -4.5139425071137996e-07 -7.9167175239506374e-09 0.0000000000000000e+00  -8.6611862068869943e-08 -6.1956147255504065e-09 0.0000000000000000e+00  2.6666119653968634e-01 -2.7249684840148940e-02 0.0000000000000000e+00  2.3300803985948593e-01 1.6430740662666362e-02 0.0000000000000000e+00  1.5219270494847992e-01 -1.3007516603093891e-02 0.0000000000000000e+00  2.7548583480757810e-01 -5.1858794451323048e-02 0.0000000000000000e+00  2.3268428229365296e-01 -3.7928316094221730e-04 0.0000000000000000e+00  2.3233950057715155e-01 -3.5538303464108229e-04 0.0000000000000000e+00  2.7284298830635571e-07 4.6703256654039338e-09 0.0000000000000000e+00  1.1505262836288525e-07 2.1360960409686292e-09 0.0000000000000000e+00  -4.7158574692011720e-07 6.2570033235341739e-09 0.0000000000000000e+00  1.8486953668620082e-01 -2.2766426193276455e-04 0.0000000000000000e+00  -1.2742776840345110e-06 -1.1550894690087209e-07 0.0000000000000000e+00  2.3168493853657171e-01 -7.0542012102064539e-02 0.0000000000000000e+00  -2.8422827139190440e-06 4.4788102088646604e-07 0.0000000000000000e+00  -6.5549737647690033e-07 -8.7862130067584988e-08 0.0000000000000000e+00  1.0063059757162767e-06 2.8820063935531861e-07 0.0000000000000000e+00  -2.6323916016828850e-07 -9.6408481674492117e-09 0.0000000000000000e+00  -3.4843961840532354e-07 -8.7432072538168691e-08 0.0000000000000000e+00  -8.5311260694485501e-07 -6.9342173519520093e-08 0.0000000000000000e+00  -3.7975669696538048e-07 -6.0549649081535504e-08 0.0000000000000000e+00  -2.3955287775270602e-06 5.3602724737797366e-08 0.0000000000000000e+00  -4.0577455824620932e-07 5.8228708254083319e-08 0.0000000000000000e+00  1.7191705607516603e-06 -3.8100762685423613e-07 0.0000000000000000e+00  1.1973579889460059e-01 1.3340027653228064e-03 0.0000000000000000e+00  -2.7398867127710691e-07 -7.1686469638440170e-08 0.0000000000000000e+00  2.4464716579540555e-01 1.7786949755636557e-02 0.0000000000000000e+00  2.6525797509690324e-01 -3.8045094014276436e-02 0.0000000000000000e+00  1.0610349908132129e-01 5.0183499646117716e-03 0.0000000000000000e+00  3.0488755542295470e-01 1.0645220428158216e-01 0.0000000000000000e+00  1.8451237173978133e-01 2.5387027424107856e-02 0.0000000000000000e+00  3.4720645977937098e-01 -4.0278400933127810e-02 0.0000000000000000e+00  2.5915537456164889e-01 -5.3071317645766440e-02 0.0000000000000000e+00  6.6501689638775091e-02 4.4573854552981920e-02 0.0000000000000000e+00  2.0730175474160881e-01 2.2010879802703684e-03 0.0000000000000000e+00  2.0654747478921393e-01 -5.7777537403276655e-04 0.0000000000000000e+00  1.8346324672547243e-01 3.2406220567140947e-03 0.0000000000000000e+00  7.5234906004921373e-02 4.2938417518512159e-08 0.0000000000000000e+00  2.7319253921463432e-01 1.8237299522109688e-08 0.0000000000000000e+00  2.2225462909697039e-01 -6.5286218339295494e-04 0.0000000000000000e+00  2.4042025861595856e-01 7.2462871758581293e-02 0.0000000000000000e+00  1.6131203840771552e-01 -3.1526109052580777e-04 0.0000000000000000e+00  1.4844524460399358e-01 -1.5803514666131231e-02 0.0000000000000000e+00  1.4827975071077193e-01 1.2134721112659853e-02 0.0000000000000000e+00  3.2329190976232514e-01 -2.3881342071561791e-02 0.0000000000000000e+00  1.8020780608206557e-01 -1.2296441788098590e-04 0.0000000000000000e+00  1.9635201033418556e-01 1.1036264953717007e-02 0.0000000000000000e+00  9.5363190621372482e-02 -2.2254977500882737e-02 0.0000000000000000e+00  3.9143613995944815e-01 -3.7587392155302074e-02 0.0000000000000000e+00  6.0136871165286293e-02 8.5407750590464643e-03 0.0000000000000000e+00  1.8414288196193371e-01 -2.1971833607916283e-04 0.0000000000000000e+00  2.8154546190141100e-01 -3.8316113151297494e-02 0.0000000000000000e+00  2.1393778437344901e-01 -1.4154148810464244e-02 0.0000000000000000e+00  1.3153020877609556e-01 -3.2876331367735302e-02 0.0000000000000000e+00  2.6473328767776680e-02 7.0930767761683772e-03 0.0000000000000000e+00  4.2732464748598104e-01 -3.5752581845495790e-02 0.0000000000000000e+00  -2.9454749716598042e-07 -2.3015075753566999e-08 0.0000000000000000e+00  2.3110806835892120e-01 3.0918614570748446e-03 0.0000000000000000e+00  -9.6680606608580506e-07 7.3605968756935436e-09 0.0000000000000000e+00  1.8774364698625540e-01 1.3178809526518981e-02 0.0000000000000000e+00  2.7710158262545359e-01 -3.2187677806032385e-02 0.0000000000000000e+00  2.8362434469137904e-01 -6.4344271002841638e-02 0.0000000000000000e+00  1.2570291855943894e-01 7.1228038033984392e-02 0.0000000000000000e+00  2.3113560894764085e-01 1.4772202168462822e-02 0.0000000000000000e+00  2.0877561391985050e-01 2.4429267710711525e-02 0.0000000000000000e+00  1.4759626117948518e-01 7.3994989301678651e-02 0.0000000000000000e+00  4.5679949713586604e-01 -1.3199150994657056e-02 0.0000000000000000e+00  7.4901011796254455e-02 1.8564005825842386e-02 0.0000000000000000e+00  -2.0617210772447746e-07 -1.1285809723426258e-07 0.0000000000000000e+00  1.4010169319837715e-01 -2.4784655862768049e-04 0.0000000000000000e+00  -1.6058841853231647e-06 5.3545677996888330e-09 0.0000000000000000e+00  -1.2965118941016837e-06 8.5547984515795400e-09 0.0000000000000000e+00  -2.4463481677969895e-07 -7.4911228779913866e-08 0.0000000000000000e+00  2.3984569979815443e-01 1.5829340136558252e-02 0.0000000000000000e+00  -1.8909365756411633e-06 -1.3713546076692288e-08 0.0000000000000000e+00  4.0379401995114356e-01 4.2373328990814710e-02 0.0000000000000000e+00  3.7425674207242887e-01 7.7599591499573170e-02 0.0000000000000000e+00  1.5059093779817151e-01 2.8953197751992862e-03 0.0000000000000000e+00  3.4356776884451723e-01 1.3158314876342741e-02 0.0000000000000000e+00  -1.6708952266457788e-06 -1.9993601753866214e-07 0.0000000000000000e+00  -8.5819234543590472e-08 -1.0769708239382547e-08 0.0000000000000000e+00  -6.0582400755654600e-07 -5.8256836598118509e-08 0.0000000000000000e+00  1.5507733655844819e-01 -3.9659603898337836e-04 0.0000000000000000e+00  9.8824547608411320e-02 -2.8838082489759018e-03 0.0000000000000000e+00  -2.8454221140761942e-07 -9.6974793010020727e-08 0.0000000000000000e+00  1.4574056684473974e-01 -2.3855973080154580e-02 0.0000000000000000e+00  1.5537470773305834e-01 1.4937041992533753e-01 0.0000000000000000e+00  3.9677655675846524e-01 -3.4708510094946021e-02 0.0000000000000000e+00  1.9200019767749015e-06 -7.8680639391591539e-08 0.0000000000000000e+00  1.1656594230289039e-01 4.6961105697690388e-02 0.0000000000000000e+00  2.5992642301485752e-01 -6.2028780669740255e-02 0.0000000000000000e+00  8.6456217265540716e-02 -3.2051838600754862e-02 0.0000000000000000e+00  1.8154692268752796e-06 -4.8202399443586156e-07 0.0000000000000000e+00  3.3438667987560879e-02 8.5240024545791323e-03 0.0000000000000000e+00  2.3886344799980611e-01 2.3096054231208547e-02 0.0000000000000000e+00  2.4220707320017140e-01 -3.0354680315625091e-02 0.0000000000000000e+00  2.4436720672533213e-01 -6.2104931508042423e-02 0.0000000000000000e+00  1.7150950620550953e-01 8.4614104847505305e-03 0.0000000000000000e+00  1.3729636471300657e-01 -1.3124899598522108e-02 0.0000000000000000e+00  2.3884713794060086e-01 2.5115714392526557e-02 0.0000000000000000e+00  6.7591069467646661e-02 1.7235822748325441e-02 0.0000000000000000e+00  1.2257476499637515e-01 -2.4857739346879877e-03 0.0000000000000000e+00  2.3146903334342481e-02 1.0420585160076153e-02 0.0000000000000000e+00  2.1175173528264274e-01 7.7288383262917575e-03 0.0000000000000000e+00  3.5756254820457044e-02 1.5513770235313081e-02 0.0000000000000000e+00  1.0149879167819979e-01 -2.0236264865811447e-02 0.0000000000000000e+00  -9.3671642693203243e-07 -1.1240587522025332e-07 0.0000000000000000e+00  -1.2625408581536198e-06 2.4856744590428073e-07 0.0000000000000000e+00  -6.1278111820509356e-07 3.8550795731944028e-07 0.0000000000000000e+00  3.4626517186191980e-01 -3.8087007525148951e-02 0.0000000000000000e+00  7.8052522405443220e-02 3.1256861994508764e-02 0.0000000000000000e+00  -2.2458729638478663e-06 -1.0620147093090030e-07 0.0000000000000000e+00  9.4708734544535081e-08 3.7496565213527244e-08 0.0000000000000000e+00  1.0818211292283408e-01 1.2389641670836756e-02 0.0000000000000000e+00  2.2097378531517659e-01 8.3441806446478920e-03 0.0000000000000000e+00  -5.2691557163490089e-07 -4.1479432307128260e-08 0.0000000000000000e+00  -2.3300604969786583e-06 3.3171348527295000e-07 0.0000000000000000e+00  3.1399749199834838e-07 2.8735234784257420e-07 0.0000000000000000e+00  -3.6102614760866088e-07 -3.4174678573727394e-08 0.0000000000000000e+00  -4.7765818392464432e-08 3.9608000660688989e-09 0.0000000000000000e+00  3.5925378863615977e-07 -3.5357372163135948e-08 0.0000000000000000e+00  -2.2346419854325716e-06 -2.6062987947623984e-07 0.0000000000000000e+00  6.0425301468061565e-07 -5.7131267555827242e-08 0.0000000000000000e+00  7.4056287362631117e-08 -8.3631708020403949e-09 0.0000000000000000e+00  -2.7722506376367510e-07 1.4343175274074787e-07 0.0000000000000000e+00  5.4394238205003688e-07 -7.0672800322274665e-08 0.0000000000000000e+00  -8.9029778091263699e-07 2.6179624949191125e-09 0.0000000000000000e+00  -2.3974146647785366e-07 2.9172366969081278e-09 0.0000000000000000e+00  4.4749271830334468e-02 5.6964085470493772e-03 0.0000000000000000e+00  1.1725423454099804e-01 -1.2429001706337144e-02 0.0000000000000000e+00  2.1433553780719047e-01 -1.4673643162251322e-02 0.0000000000000000e+00  1.1742118937396522e-01 9.5430417930219991e-03 0.0000000000000000e+00  2.9147469066037957e-01 7.5764142959650380e-02 0.0000000000000000e+00  3.3737632207073376e-01 5.3513690689522601e-02 0.0000000000000000e+00  3.1540536649227735e-01 2.6288022659311516e-02 0.0000000000000000e+00  1.4416817947554900e-01 -2.2736665892633020e-04 0.0000000000000000e+00  2.3487662246299071e-01 2.8399957094225735e-02 0.0000000000000000e+00  3.1746366460200581e-01 -7.1590112220161456e-02 0.0000000000000000e+00  8.7017168587958812e-02 -8.9710570555667571e-03 0.0000000000000000e+00  2.3176450763634066e-01 -6.1382319593669275e-04 0.0000000000000000e+00  2.3246496007703643e-01 -7.5894706583460789e-04 0.0000000000000000e+00  2.1927108596565156e-01 -5.6373498669099300e-04 0.0000000000000000e+00  2.2848391391968378e-01 8.1117617800562905e-04 0.0000000000000000e+00  1.2709143376724821e-01 5.6810546865232274e-04 0.0000000000000000e+00  1.3578760048631672e-01 -2.8796048722784474e-04 0.0000000000000000e+00  1.9878003162467603e-01 1.9055085954046549e-01 0.0000000000000000e+00  3.8979396203691653e-02 4.4943890518346262e-02 0.0000000000000000e+00  1.3967117487588010e-01 -1.3008720803664386e-02 0.0000000000000000e+00  2.1972086307044095e-01 -4.8949210716222758e-03 0.0000000000000000e+00  2.0731605457269389e-01 5.0030971681918820e-03 0.0000000000000000e+00  2.2095988752881998e-01 2.4830772311641536e-02 0.0000000000000000e+00  3.0232362810741592e-01 -7.9842008927685448e-02 0.0000000000000000e+00  2.1726198046117087e-01 -6.6272202139855808e-04 0.0000000000000000e+00  8.4627580000759525e-02 6.6180174546264360e-04 0.0000000000000000e+00  2.6230266874068520e-01 -8.8365572755880351e-03 0.0000000000000000e+00  3.2916964730828813e-01 -5.1433771278630198e-02 0.0000000000000000e+00  1.2905400928268482e-01 3.3548885585076207e-03 0.0000000000000000e+00  2.1667938821093941e-01 1.0047084935643489e-02 0.0000000000000000e+00  1.3064024501623511e-01 3.8123593811433427e-04 0.0000000000000000e+00  1.6271047086133814e-01 7.6149959621019989e-02 0.0000000000000000e+00  2.4655207246869157e-01 1.3041117694774151e-01 0.0000000000000000e+00  2.1994395288306962e-01 3.1088493459831269e-02 0.0000000000000000e+00  1.6461487332052788e-01 -1.2007507224034141e-02 0.0000000000000000e+00  2.6511576517976448e-01 -3.1389555107924676e-02 0.0000000000000000e+00  2.7419421056922055e-01 -4.7363486932000862e-02 0.0000000000000000e+00  3.9247229529753269e-01 1.7993964623607746e-02 0.0000000000000000e+00  2.3544693381312262e-01 -3.1650108624180766e-02 0.0000000000000000e+00  2.1648860563695047e-01 -3.9755218620861614e-02 0.0000000000000000e+00  3.4063716968061619e-01 1.8378311138542941e-01 0.0000000000000000e+00  2.7756188102268775e-01 3.6394906917093878e-02 0.0000000000000000e+00  2.3158993352108675e-01 7.2348847972042121e-02 0.0000000000000000e+00  2.3279549655563836e-01 8.1819676745675061e-03 0.0000000000000000e+00  2.0048781613906372e-01 -4.1504046099964252e-04 0.0000000000000000e+00  2.2161727948801568e-01 -3.3211658607249444e-04 0.0000000000000000e+00  2.9901766473556213e-01 -3.8579565175211786e-02 0.0000000000000000e+00  1.2564733976109410e-01 2.5513382560370106e-02 0.0000000000000000e+00  7.4595079168301007e-02 6.1834312368428818e-03 0.0000000000000000e+00  2.1003963044891422e-01 2.1551555582448510e-02 0.0000000000000000e+00  1.5818983859579808e-01 4.9276661432240278e-02 0.0000000000000000e+00  2.5236357481581340e-01 -3.6624530052679460e-02 0.0000000000000000e+00  1.4045933026512283e-01 -1.6193144858966526e-02 0.0000000000000000e+00  4.2739204171413560e-02 -1.9122231857867215e-03 0.0000000000000000e+00  4.6290794800709534e-01 4.3156480448571281e-02 0.0000000000000000e+00  1.0625965776794066e-01 1.7817975655362724e-03 0.0000000000000000e+00  3.4762366146546864e-01 -2.6574297804550808e-02 0.0000000000000000e+00  2.0497859125181186e-01 -4.1150798164382246e-04 0.0000000000000000e+00  2.3828418706467241e-01 -1.1985439614717713e-02 0.0000000000000000e+00  1.7122257930908000e-01 2.2908614654682358e-02 0.0000000000000000e+00  2.1928605326275621e-01 1.8616741949056624e-03 0.0000000000000000e+00  1.5807854817095179e-01 -4.7823084245674295e-02 0.0000000000000000e+00  2.6326534854523867e-02 2.5406312892444758e-03 0.0000000000000000e+00  1.0787040711415423e-01 2.9544829758855278e-03 0.0000000000000000e+00  1.5395867769148926e-03 -3.6733217366538332e-03 0.0000000000000000e+00  8.8975565121483927e-02 7.0077427224030870e-03 0.0000000000000000e+00  6.2803903388679083e-02 1.7637316445283449e-02 0.0000000000000000e+00  1.9826157316750531e-01 2.0522358825740019e-04 0.0000000000000000e+00  1.0729431766288858e-01 -3.8720281481836790e-05 0.0000000000000000e+00  4.0238006114898495e-01 -3.9785381060502709e-02 0.0000000000000000e+00  2.2915259780664179e-01 1.5452373208122443e-02 0.0000000000000000e+00  2.0766401588877118e-01 1.4563101959673181e-03 0.0000000000000000e+00  3.5785432924540693e-02 8.1031762156338516e-08 0.0000000000000000e+00  7.8084810326009210e-02 8.2108391671298336e-03 0.0000000000000000e+00  1.5902813482904801e-01 4.2062173663843634e-02 0.0000000000000000e+00  2.2655890148645191e-01 5.3161071573330104e-04 0.0000000000000000e+00  2.2382336692193353e-01 1.7043678299583854e-02 0.0000000000000000e+00  1.6605357659233036e-01 -6.9015500604401340e-03 0.0000000000000000e+00  3.2535634130114222e-01 -2.7748370016945634e-02 0.0000000000000000e+00  3.8094317963176055e-01 3.5632349965899660e-02 0.0000000000000000e+00  1.4456474132191210e-01 -1.5028151808812564e-03 0.0000000000000000e+00  9.2462900294055725e-02 3.4935278286926615e-03 0.0000000000000000e+00  1.1194503665802459e-01 -9.4232819387834291e-05 0.0000000000000000e+00  -8.0241560468499867e-03 1.5436689619525223e-02 0.0000000000000000e+00  3.3356378262157765e-01 3.2614078204209726e-08 0.0000000000000000e+00  6.1123903013928088e-02 -3.6840426063880988e-03 0.0000000000000000e+00  3.9187532076813569e-01 3.5774096016813165e-03 0.0000000000000000e+00  1.1708309138397172e-01 -2.0530933231418621e-04 0.0000000000000000e+00  3.2094482572693128e-01 -3.8870025360258194e-02 0.0000000000000000e+00  1.1852650665083964e-01 -3.1476682100749972e-08 0.0000000000000000e+00  2.2205205675766321e-01 -3.3069729455868102e-04 0.0000000000000000e+00  1.1127295465582014e-01 -7.6886911925787673e-05 0.0000000000000000e+00  2.1733315282910995e-01 -2.8317266300811982e-08 0.0000000000000000e+00  1.1188669736368372e-01 1.0604292954719747e-03 0.0000000000000000e+00  1.6649262892907413e-01 -3.9884172615533677e-03 0.0000000000000000e+00  2.2829854612805822e-01 -5.1516187252684470e-04 0.0000000000000000e+00  2.1838220148804613e-02 -1.1990802573771128e-02 0.0000000000000000e+00  4.9283870646077997e-02 -1.2195658707139985e-02 0.0000000000000000e+00  1.7242694830245700e-01 -5.4416809470725039e-02 0.0000000000000000e+00  1.9943969466071913e-03 4.0835678226581826e-03 0.0000000000000000e+00  3.1342288484176911e-01 -1.6420706180049541e-02 0.0000000000000000e+00  2.8665290177437047e-01 -1.7158512104080866e-02 0.0000000000000000e+00  4.0930367210609253e-01 -4.5885816582321819e-02 0.0000000000000000e+00  1.2423922915183097e-01 2.7163631172329892e-03 0.0000000000000000e+00  2.7511590519099133e-01 -3.4037441972518991e-02 0.0000000000000000e+00  2.8054381817292051e-01 -1.6793854753989562e-02 0.0000000000000000e+00  1.9154468207736985e-01 -5.5078551975759182e-04 0.0000000000000000e+00  1.9781143657042746e-01 -3.8039366901680069e-02 0.0000000000000000e+00  8.3505456157952282e-02 -1.2739998685053656e-04 0.0000000000000000e+00  1.8697869823276761e-01 -7.6351630992689068e-03 0.0000000000000000e+00  3.2