<?xml version="1.0"?>
<VTKFile type="UnstructuredGrid"  version="0.1"  >
<UnstructuredGrid>
<Piece  NumberOfPoints="1404" NumberOfCells="2604">
<Points>
<DataArray  type="Float64"  NumberOfComponents="3"  format="ascii">0 0.41 0  0 0 0  2.2 0 0  2.2 0.41 0  0.2353553390593274 0.2353553390593274 0  0.25 0.2 0  0.2353553390593274 0.1646446609406726 0  0.2 0.15 0  0.1646446609406726 0.1646446609406726 0  0.15 0.2 0  0.1646446609406726 0.2353553390593274 0  0.2 0.25 0  0.6923879532511287 0.188268343236509 0  0.7 0.15 0  0.6923879532511287 0.1117316567634909 0  0.6707106781186547 0.07928932188134523 0  0.6382683432365089 0.05761204674887133 0  0.6 0.04999999999999999 0  0.5617316567634909 0.05761204674887134 0  0.5292893218813453 0.07928932188134524 0  0.5076120467488713 0.111731656763491 0  0.5 0.15 0  0.5076120467488713 0.188268343236509 0  0.5292893218813453 0.2207106781186547 0  0.561731656763491 0.2423879532511287 0  0.6 0.25 0  0.6382683432365089 0.2423879532511287 0  0.6707106781186547 0.2207106781186547 0  1.1 0 0  0 0.205 0  1.1 0.41 0  0.55 0 0  0.55 0.41 0  0.275 0 0  0.8250000000000001 0 0  0.275 0.41 0  0.8250000000000001 0.41 0  0.6875 0 0  0.61875 0 0  1.65 0.41 0  1.65 0 0  1.375 0 0  1.375 0.41 0  1.925 0 0  1.925 0.41 0  1.5125 0.205 0  1.7875 0.205 0  0.9625000000000001 0.205 0  1.2375 0.205 0  2.2 0.205 0  1.99375 0.2152743902439024 0  0.4125 0.41 0  2.0625 0 0  2.0625 0.41 0  2.2 0.3075 0  1.7875 0.41 0  1.375 0.1486128048780488 0  1.5125 0 0  1.7875 0 0  1.5125 0.41 0  0.9625000000000001 0.41 0  0.4125 0 0  0.1375 0 0  0.1375 0.41 0  0.6875 0.41 0  0.9625000000000001 0 0  1.2375 0 0  1.1 0.1486128048780488 0  1.2375 0.41 0  1.65 0.1486128048780487 0  0.823495464168302 0.2603780552348366 0  0.3738707794507017 0.2720196349488618 0  0.3662291281331582 0.1311456406657909 0  1.676715909090909 0.2793064024390244 0  1.126715909090909 0.2793064024390244 0  1.348284090909091 0.2793064024390244 0  0.8287581077665108 0.1302150898054257 0  1.894702181800738 0.1282910975492754 0  2.092797818199262 0.1282910975492754 0  1.85625 0.3075 0  0 0.3075 0  0 0.1025 0  2.099172119769978 0.25625 0  0.4752414543992246 0.3180372603390748 0  1.99375 0.08395950269330846 0  1.459960956013612 0.3075 0  1.569025960719943 0.2986889805672169 0  1.03125 0.3278689922742084 0  1.959375 0.3126371951219512 0  1.749222215368287 0.1025 0  1.275777784631713 0.1025 0  0.9228016959331474 0.3075 0  1.000777784631713 0.1025 0  2.2 0.1025 0  1.225938124459196 0.3075 0  1.550777784631713 0.1025 0  1.44375 0.07430640243902442 0  1.16875 0.07430640243902439 0  0.7562500000000001 0.3358727844323386 0  0.89375 0 0  1.899250267340833 0.2229966846119207 0  0.61875 0.41 0  1.766482954545455 0.2934032012195123 0  1.046078563095834 0.2389031808701145 0  1.421109702350723 0.2261157654379721 0  0.07567171807980319 0.25625 0  0.2511897295290552 0.3235829392832554 0  0.07655002503762308 0.1488653460959645 0  0.1377245246847496 0.3206030474919778 0  0.6694099692696568 0.3242771941727899 0  0.9168971191497528 0.1295727156104653 0  0.7562500000000001 0 0  2.118919042110979 0.3422084711244843 0  2.13125 0 0  0.06875000000000001 0 0  1.30625 0.41 0  1.597888256393107 0.2173787389261347 0  0.34375 0.41 0  0.2493272016354703 0.08091360081773515 0  0.5588896233436766 0.3264056208677571 0  1.829299675393195 0.07400700849299596 0  0.1334079128307869 0.08523463035786674 0  1.71875 0.41 0  0.06875000000000001 0.41 0  1.16875 0.41 0  2.038220665644273 0.332420740103091 0  0.8810647413215221 0.2027360103977071 0  0.34375 0 0  0.7453891198966415 0.2471459041008237 0  0.42112093004955 0.1988123139090554 0  0.8314023090855964 0.3351170841770613 0  0.89375 0.41 0  0.7906250000000001 0.06615386481594063 0  1.452769549894695 0.1548122580621249 0  1.369219062229598 0.07430640243902442 0  1.30625 0 0  1.07420695807087 0.07430640243902439 0  1.720943423819132 0.1714577452753128 0  1.157188124459196 0.205 0  1.304056576180868 0.1714577452753128 0  1.67579304192913 0.07430640243902437 0  1.209670467133757 0.136210026696477 0  0.4312800784902823 0.08036147352247747 0  0.8723959680194693 0.07066860609690805 0  1.025335513626278 0.1700681449722324 0  0.7945632284247136 0.1940204203251442 0  0.378125 0.3452261501101892 0  0.3307109909790086 0.2037165635083759 0  0.3009701032039409 0.2702970083403109 0  0.20625 0.41 0  1.58125 0 0  0.4812500000000001 0 0  0.9838963872396855 0.2722244191167347 0  0.06772484939107212 0.3260067317374387 0  0.20625 0 0  1.58125 0.41 0  1.631724228912893 0.3381867502687533 0  1.825608881788174 0.14499488549201 0  1.85625 0 0  1.44375 0 0  1.44375 0.41 0  1.85625 0.41 0  2.13125 0.41 0  0.7562500000000001 0.41 0  0.4812500000000001 0.41 0  1.16875 0 0  1.03125 0.41 0  1.03125 0 0  1.71875 0 0  1.99375 0 0  1.99375 0.41 0  0.9408708167433545 0.0651989315768642 0  1.340625 0.3489494290853124 0  1.134375 0.3489494290853123 0  1.700180620188976 0.3438659752031281 0  0.29668452290037 0.1318471691375986 0  0.3175441051360096 0.06496934809856265 0  0.06509151636162461 0.08140814015999148 0  2.135782184673599 0.07126652247502523 0  1.668441847249787 0.2129203728327609 0  1.295782514339747 0.2378437748815763 0  1.409375 0.3520314716057996 0  2.129248544730567 0.1906135162504124 0  2.060771381434487 0.1989445750470348 0  2.013252586573865 0.1496169464686054 0  1.942766402200229 0.1734448904596831 0  1.895522487186454 0.06076163953489683 0  2.069553871656643 0.06605731020975725 0  0.4670911801404742 0.2498408582391372 0  0.7622743084658112 0.1264100838268133 0  1.274680914880868 0.3520219391081363 0  0.3148669572599245 0.3331753056385887 0  1.614713220494657 0.09473434380863296 0  1.72990325744076 0.2380068107952482 0  1.356580098625191 0.2120393231351682 0  2.034370752044885 0.2668681600792073 0  1.51768709249349 0.3426260931494756 0  1.561883724969884 0.1650446847858835 0  1.197344062229598 0.2523725417393646 0  1.804085235518364 0.3468178408964637 0  1.817887819205233 0.2589243285818559 0  1.905897727272727 0.3485060975609756 0  0.7296439733931823 0.06337466644369745 0  0.4250935971865949 0.1394919578475796 0  0.3773030136511669 0.05130372097998036 0  1.192836486056382 0.3562350748565544 0  1.1029124365364 0.226143510831178 0  1.28257088594801 0.2944411014911587 0  0.1905185804731426 0.06029880676029167 0  1.474860187679412 0.2504218616229368 0  1.406767003493824 0.2829282258560709 0  0.5209826960981064 0.2830664557824064 0  0.5131119502780163 0.3617405848213254 0  0.1948220106098172 0.3081993407644811 0  1.845656689180403 0.1998310418452388 0  2.144958525570388 0.2909790873294231 0  2.2 0.15375 0  0.8833025251326762 0.2625402923007629 0  0.171875 0.3653875762360952 0  1.57794966442982 0.3540357145964566 0  0.446875 0.366068291212731 0  0.4272051715206439 0.2891929346190664 0  1.508991196088596 0.1421783375065625 0  1.50436820029908 0.06143401634903343 0  1.223857000523521 0.08235548624535324 0  0.6137904613287555 0.3066826366281556 0  1.153316824384777 0.1289850171317838 0  0.9751573703656133 0.327632618473408 0  2.148922302309752 0.1258841779285271 0  0.9281250000000001 0.3643758685795699 0  1.621993280276081 0.2841214267927899 0  1.550118654119087 0.2461998729100966 0  1.327182649291491 0.1216967252533594 0  0.9939955742738924 0.04663549843168518 0  1.753125 0.04556020050186112 0  1.271875 0.04556020050186116 0  0.9734326767716519 0.1506854560854393 0  0.103125 0.3675775577080512 0  1.94956388244759 0.1180512551534177 0  1.949997712993411 0.04965831614304109 0  0.717433898748555 0.295596016333797 0  1.771961817615021 0.1530278789497521 0  1.909246823951428 0.2812757146784527 0  0 0.35875 0  1.050632804931928 0.1226269704412814 0  0.05695108326502596 0.2024009637347154 0  1.948575539857022 0.2445328248721197 0  1.697271520964565 0.1233917627620729 0  1.065625 0.3689344961371042 0  1.085849084308977 0.3170853572226867 0  0.1015495998772944 0.04226029099983852 0  1.577403511714593 0.05463601888079143 0  1.751571320346033 0.3651102912045228 0  2.2 0.35875 0  0.7441773632462837 0.1786786606458751 0  0 0.05125 0  1.466879772203159 0.3611261772912453 0  0.6282230348858767 0.3577675483994025 0  1.990280163552011 0.3564754268533217 0  1.17471064520912 0.2990917256188288 0  0 0.25625 0  2.2 0.25625 0  2.2 0.05125 0  0 0.15375 0  1.853978576207987 0.35875 0  1.515638456102889 0.2882700110184686 0  2.150453692751374 0.2387066338105111 0  1.323782677156475 0.04897634338873398 0  1.409375 0.03715320121951221 0  1.406484531114799 0.1087852750766809 0  1.134375 0.03715320121951219 0  0.721875 0.3729363922161693 0  0.7941695928236929 0.3696489254637395 0  0.7934827162619036 0.3013409431456604 0  1.627401732573545 0.04552157221025036 0  0.9352049974617431 0.2507047965699472 0  0.8763260682738339 0.3611103317460093 0  2.045405893604797 0.1105340662939892 0  1.255408269734577 0.1577307500159216 0  2.028125 0.03707597992059326 0  1.003030137506755 0.3689344961371042 0  1.248258025468107 0.2565907092181813 0  1.203125 0.03661323374043041 0  0.4800125512335631 0.0549472816999725 0  2.072662025974815 0.2975086504196739 0  0.240625 0.3729825336867542 0  1.113252391110535 0.10238286244357 0  1.071052763974265 0.1885202618768825 0  0.8738809401657862 0.3106483608284829 0  0.6786819423003397 0.2677558482644021 0  1.887722846421017 0.1760882698830035 0  1.472640588990488 0.1118278026240017 0  0.5843750000000001 0.41 0  1.865937103925594 0.2604137786483804 0  1.463913572748262 0.2030442564990043 0  1.376426316059077 0.3186741374914345 0  0.1038643885363755 0.2162701735320032 0  0.1769473813227781 0.1070849728467114 0  0.458787839809176 0.171541653775316 0  0.240625 0 0  0.04179569703428024 0.2877217852556549 0  0.1258346557601885 0.2699740073054968 0  1.722140693354707 0.282908100935778 0  0.41206179117512 0.2448172567039922 0  0.3702471778075604 0.2265217604228704 0  0.3714881805374215 0.1786967818665642 0  1.77397096061971 0.2481483237422926 0  2.105123889160691 0.03743885948498647 0  1.001138337938679 0.229719337663998 0  1.051242910646791 0.2854826559431138 0  1.395420985247586 0.18
[...]
<PointData  Vectors="f_37"> 
<DataArray  type="Float64"  Name="f_37"  NumberOfComponents="3" format="ascii">1.7418638837772436e-07 -6.7072044457097168e-08 0.0000000000000000e+00  -4.4309402819954764e-06 -3.7622511996004763e-07 0.0000000000000000e+00  -9.3002317559801488e-07 1.5455252221703599e-09 0.0000000000000000e+00  -1.1694548713422783e-06 -8.4295951668546142e-10 0.0000000000000000e+00  -1.0558151488472305e-08 9.9297066286819559e-07 0.0000000000000000e+00  5.8750398671010238e-08 1.8407288520105323e-06 0.0000000000000000e+00  1.3539085192170742e-08 7.3219109321912514e-07 0.0000000000000000e+00  -2.3139831280302937e-06 -3.3560288295768037e-07 0.0000000000000000e+00  -3.4126685409759705e-07 4.6390051624640764e-07 0.0000000000000000e+00  -2.4113186008464915e-07 -8.6299197627431643e-07 0.0000000000000000e+00  -8.0471339256378447e-07 -1.9133578865577684e-07 0.0000000000000000e+00  -1.0934256656553093e-07 -1.1456917241641303e-07 0.0000000000000000e+00  1.4443104013756221e-06 -3.9374561108203906e-06 0.0000000000000000e+00  -1.7263469319862532e-07 -4.9567622708048061e-06 0.0000000000000000e+00  -7.7014772656106113e-07 -2.4051322706404611e-06 0.0000000000000000e+00  -1.0579865205119737e-06 6.3054949207924893e-07 0.0000000000000000e+00  2.8422716147575596e-06 1.3523313814720870e-06 0.0000000000000000e+00  3.1048054501192462e-01 8.5487658862501509e-02 0.0000000000000000e+00  5.3491873253177721e-06 3.2854573137529672e-06 0.0000000000000000e+00  5.5861136223993306e-06 1.1195585055417466e-06 0.0000000000000000e+00  -1.9550001838855630e-06 -5.3758688007968725e-06 0.0000000000000000e+00  4.0572719143823185e-09 4.2698895867699111e-06 0.0000000000000000e+00  5.9207259359889089e-06 6.4559374812336034e-06 0.0000000000000000e+00  5.2155847728054291e-06 -4.8931107024642942e-06 0.0000000000000000e+00  -4.6586657076100875e-06 -6.7584748105966742e-06 0.0000000000000000e+00  -8.8587267613035651e-06 -1.0244428406301100e-06 0.0000000000000000e+00  -6.4950696110990011e-06 1.7856530206810686e-06 0.0000000000000000e+00  6.2870584992276918e-07 -9.8428874653208311e-07 0.0000000000000000e+00  -1.5578777085640464e-06 1.5542310835752773e-07 0.0000000000000000e+00  1.6583337152305949e-01 -2.3742172182447187e-07 0.0000000000000000e+00  -2.2765420741124166e-06 -8.4382431051148610e-08 0.0000000000000000e+00  6.3015213491919825e-06 2.7509000200807729e-06 0.0000000000000000e+00  -1.2422347993311300e-06 -3.1464114681225096e-07 0.0000000000000000e+00  1.9715052413777590e-07 1.2026192396641227e-07 0.0000000000000000e+00  6.2141381910889947e-07 -1.4561350112466682e-07 0.0000000000000000e+00  -2.1265894293766724e-06 -2.9115427624086971e-07 0.0000000000000000e+00  -2.8508235115908111e-07 2.9184930633639573e-07 0.0000000000000000e+00  -2.0476606886343438e-06 -4.3271932778670776e-07 0.0000000000000000e+00  -6.9755195092123197e-06 -3.8244385529530897e-07 0.0000000000000000e+00  -1.3111820408558691e-06 3.1714534429347032e-12 0.0000000000000000e+00  -1.6989084669896466e-06 -1.7628929230908252e-09 0.0000000000000000e+00  -9.7830158670853782e-07 -5.2090912273333692e-09 0.0000000000000000e+00  -5.9760779747119407e-07 -6.5316211784259387e-09 0.0000000000000000e+00  -7.7875928239563623e-07 2.4025858039677800e-10 0.0000000000000000e+00  -2.4062503618500851e-07 -7.7119835959771934e-10 0.0000000000000000e+00  2.0362257332727454e-01 5.6996993065214894e-05 0.0000000000000000e+00  2.0361755236179280e-01 2.7949862963995937e-05 0.0000000000000000e+00  2.2535640313324967e-01 -9.7483975554993538e-02 0.0000000000000000e+00  2.0425165410073109e-01 -3.2127538500191502e-03 0.0000000000000000e+00  2.0363330747185734e-01 -1.1253778025322413e-05 0.0000000000000000e+00  2.0360958890440339e-01 5.0915489847813169e-06 0.0000000000000000e+00  -4.2867610415061945e-07 7.2639925848568472e-08 0.0000000000000000e+00  -5.9135576571208538e-08 1.0574723636465147e-09 0.0000000000000000e+00  -8.4764320824904630e-07 1.9837296078862047e-09 0.0000000000000000e+00  1.9340211656836423e-01 -1.2056231462154004e-07 0.0000000000000000e+00  -1.1654024454816417e-06 -7.4539773721144718e-10 0.0000000000000000e+00  2.0236171540285425e-01 -2.2426529587444709e-04 0.0000000000000000e+00  -1.6606678474607491e-06 -2.2945190664113826e-09 0.0000000000000000e+00  -1.3912948851460529e-06 -5.8000052085236165e-10 0.0000000000000000e+00  -9.3628410666797482e-07 -2.8570266344192837e-09 0.0000000000000000e+00  4.4480684391577592e-07 3.4868202100734965e-08 0.0000000000000000e+00  2.9466757714868756e-07 -4.4579540800788318e-07 0.0000000000000000e+00  -9.4469468961148308e-07 -7.8677852140688755e-09 0.0000000000000000e+00  8.7112575747044586e-07 4.8270998568315426e-07 0.0000000000000000e+00  -1.0964074446966623e-06 -1.1474981648067185e-07 0.0000000000000000e+00  -3.2946882363292558e-06 3.6763386868845257e-07 0.0000000000000000e+00  6.5332669740412145e-07 5.6829249314587602e-09 0.0000000000000000e+00  1.9425429410936038e-01 -1.9699015522204232e-02 0.0000000000000000e+00  -6.2167684842673117e-07 -1.2307758190402323e-08 0.0000000000000000e+00  2.0267708756516634e-01 5.0373250090054203e-05 0.0000000000000000e+00  3.4514043433232616e-01 -1.0608423781127388e-01 0.0000000000000000e+00  9.6922276870012855e-02 1.6005781178646299e-02 0.0000000000000000e+00  3.0774650991111618e-01 1.2737047777237584e-01 0.0000000000000000e+00  2.0095070173874735e-01 4.3698270450198085e-05 0.0000000000000000e+00  2.1187873053837908e-01 -4.9733876036896028e-03 0.0000000000000000e+00  2.0146848834569483e-01 -1.3714305023904873e-04 0.0000000000000000e+00  3.2345068139631790e-02 1.3920484835657910e-02 0.0000000000000000e+00  2.0061566680634846e-01 2.4060117961378380e-05 0.0000000000000000e+00  2.0057217312122974e-01 2.5068401442178211e-06 0.0000000000000000e+00  1.9340283393310745e-01 1.1413358466937424e-05 0.0000000000000000e+00  7.5234830268615840e-02 1.0783303005483329e-07 0.0000000000000000e+00  2.7319260292857617e-01 7.3268678205173961e-08 0.0000000000000000e+00  2.0292301237571023e-01 -1.4196757149683284e-06 0.0000000000000000e+00  2.6470306671987742e-01 8.7083281098181003e-02 0.0000000000000000e+00  1.8196140773133734e-01 -6.0260840231953582e-07 0.0000000000000000e+00  1.9335794088889699e-01 1.2642495719148616e-04 0.0000000000000000e+00  1.9667031395233306e-01 9.2252777113091715e-05 0.0000000000000000e+00  1.9604583542959306e-01 -6.2414741251457114e-04 0.0000000000000000e+00  1.9093458069557812e-01 -3.1775535338104032e-06 0.0000000000000000e+00  1.9345011148218164e-01 8.8750063646350701e-06 0.0000000000000000e+00  1.9218209153370189e-01 -7.7046881346194099e-04 0.0000000000000000e+00  2.9908017581046481e-01 -5.8793125702880554e-02 0.0000000000000000e+00  1.4731391675614378e-01 -3.5774314026337607e-02 0.0000000000000000e+00  1.9341178743907894e-01 -6.6948185528171168e-06 0.0000000000000000e+00  1.9556261257808341e-01 -4.1686916338617682e-04 0.0000000000000000e+00  1.9340269841726124e-01 8.2272351237458959e-05 0.0000000000000000e+00  1.7298125247421151e-01 1.2803659012113768e-04 0.0000000000000000e+00  1.6844996131897871e-01 -2.8064888897040394e-03 0.0000000000000000e+00  4.1472711374928845e-01 -6.3532935980257763e-02 0.0000000000000000e+00  -1.7493360106910070e-06 2.2052785856135702e-07 0.0000000000000000e+00  2.0358388859401610e-01 1.1965329519420319e-05 0.0000000000000000e+00  1.4479547986003724e-07 -1.9199240736111379e-07 0.0000000000000000e+00  1.9816236418826416e-01 4.4814411201134146e-05 0.0000000000000000e+00  2.3156327816867542e-01 -3.2107099576286893e-02 0.0000000000000000e+00  2.0363673044232003e-01 -6.9324536725580690e-05 0.0000000000000000e+00  1.2615086459163907e-01 6.8918263094931362e-02 0.0000000000000000e+00  2.3124877992346612e-01 2.3778828311417616e-02 0.0000000000000000e+00  2.0928202168119231e-01 2.3345230469577791e-02 0.0000000000000000e+00  1.4861265802128865e-01 7.3560608785698547e-02 0.0000000000000000e+00  4.6623277046538930e-01 -3.3082621495258362e-02 0.0000000000000000e+00  9.9396391926565075e-02 -5.9125388032035785e-02 0.0000000000000000e+00  5.7043772933747374e-07 -2.7509187822326607e-07 0.0000000000000000e+00  1.6510927987659285e-01 7.3750161586582683e-06 0.0000000000000000e+00  -2.0820322382201405e-06 -4.7027565213713122e-09 0.0000000000000000e+00  -1.2949556786288197e-06 1.6714689813063857e-08 0.0000000000000000e+00  -4.2074312783994403e-07 -2.0743416972683124e-09 0.0000000000000000e+00  2.0358954761708736e-01 7.4229251515971892e-05 0.0000000000000000e+00  -2.2369893863947357e-06 -1.8135071632065234e-07 0.0000000000000000e+00  4.0335230303912134e-01 4.9865863916020173e-02 0.0000000000000000e+00  4.0146459547264679e-01 7.4104715069731972e-02 0.0000000000000000e+00  1.7254471638749785e-01 -3.7159806129788262e-06 0.0000000000000000e+00  3.4471889373366543e-01 1.3623274414776322e-02 0.0000000000000000e+00  -1.3777270867409615e-06 -4.4059678045681586e-10 0.0000000000000000e+00  3.1914198950187782e-07 -1.4479982938833634e-08 0.0000000000000000e+00  -1.4005140435502027e-06 -1.9766464764781709e-08 0.0000000000000000e+00  1.7620228668453605e-01 -2.7275144019482315e-06 0.0000000000000000e+00  1.9279316850574918e-01 -1.0761346823490091e-01 0.0000000000000000e+00  -2.7563217706536632e-07 -2.7046025402738253e-07 0.0000000000000000e+00  2.0159334124242123e-01 -3.9318239872184607e-02 0.0000000000000000e+00  1.7382992433607125e-01 1.7849333090219477e-01 0.0000000000000000e+00  3.3914631108419940e-01 -6.4693870734675807e-02 0.0000000000000000e+00  3.3232270602512593e-06 3.5564809441821157e-07 0.0000000000000000e+00  9.2811863794548935e-02 3.9706785163184585e-02 0.0000000000000000e+00  2.0290586223275031e-01 3.6121073675673515e-05 0.0000000000000000e+00  1.7296123758971083e-01 9.5204229676128856e-05 0.0000000000000000e+00  6.7053171637417990e-09 -2.7895913144979095e-09 0.0000000000000000e+00  1.5527362584730003e-01 -1.1041626323853079e-02 0.0000000000000000e+00  2.0340345554928585e-01 3.2120898114655668e-05 0.0000000000000000e+00  2.0612753755600075e-01 -9.5250101384275407e-03 0.0000000000000000e+00  2.0297701753243255e-01 -1.1761497900748094e-03 0.0000000000000000e+00  1.7283486338347923e-01 3.3199323552744186e-05 0.0000000000000000e+00  1.9867347870670035e-01 -4.0343179663668328e-03 0.0000000000000000e+00  2.0727459705495765e-01 1.8857901922329053e-02 0.0000000000000000e+00  7.1138793024953684e-02 -4.8769853953992371e-03 0.0000000000000000e+00  1.9369952055460954e-01 -5.2155194356253237e-02 0.0000000000000000e+00  6.9133468572866327e-02 -1.3480080760626819e-03 0.0000000000000000e+00  2.2008212379515441e-01 6.3415554616765481e-03 0.0000000000000000e+00  5.1343767972913942e-02 2.8866708424581909e-02 0.0000000000000000e+00  8.3063994141133787e-02 -2.2188995614854396e-02 0.0000000000000000e+00  -8.1614074164301309e-07 3.7225922220951001e-07 0.0000000000000000e+00  -7.9833578412545219e-07 -2.7127685462376417e-09 0.0000000000000000e+00  -3.8540966667653762e-07 5.6118149017457752e-07 0.0000000000000000e+00  2.7276394020741240e-01 -4.7967499851279391e-02 0.0000000000000000e+00  7.8267468920765054e-02 2.7720565361255757e-02 0.0000000000000000e+00  -2.3624688280916683e-06 -3.1581723911113430e-08 0.0000000000000000e+00  -9.9381021783417247e-07 -8.8014311841265164e-10 0.0000000000000000e+00  1.6996193008859464e-01 4.4618794310848282e-05 0.0000000000000000e+00  2.0238062307068017e-01 1.6993359004544694e-05 0.0000000000000000e+00  -1.0210759921046232e-06 2.6439397020337896e-10 0.0000000000000000e+00  -1.2502334466054374e-06 -3.2444626928345279e-09 0.0000000000000000e+00  -1.1689073636000312e-06 -4.3880521097346480e-09 0.0000000000000000e+00  -3.4237077904149909e-07 1.6994024295769372e-10 0.0000000000000000e+00  -3.1541113086370183e-07 -5.8681281861142515e-10 0.0000000000000000e+00  1.3245388276956007e-06 -1.8529995090455382e-07 0.0000000000000000e+00  -3.9920303010393639e-06 -2.9678441435339613e-07 0.0000000000000000e+00  -7.6020450499409976e-07 7.2617203723272768e-08 0.0000000000000000e+00  -1.7949441682750628e-06 -1.0134925578264042e-07 0.0000000000000000e+00  -1.7341443623688786e-06 2.2971766875273788e-07 0.0000000000000000e+00  -2.6087601395692083e-08 -1.5870005624900475e-09 0.0000000000000000e+00  -1.3047445408273506e-06 1.6069864860102442e-09 0.0000000000000000e+00  -5.4615349651595480e-07 -6.5431040091427302e-10 0.0000000000000000e+00  9.3366863607864337e-02 -2.0561267026595217e-02 0.0000000000000000e+00  1.5532995844603853e-01 2.0199568984854489e-04 0.0000000000000000e+00  1.5631213018466367e-01 9.8552498107690525e-04 0.0000000000000000e+00  1.6290982846669602e-01 2.0589397118323714e-05 0.0000000000000000e+00  3.0561936016948538e-01 9.0529373518170961e-02 0.0000000000000000e+00  3.2180382296643001e-01 6.0087624073727530e-02 0.0000000000000000e+00  3.1566453639243658e-01 2.6031732419056170e-02 0.0000000000000000e+00  1.6939697940632284e-01 5.0325458178805672e-06 0.0000000000000000e+00  2.0360658224099537e-01 5.4389686721585945e-05 0.0000000000000000e+00  2.0424338405139861e-01 -1.0855862518493772e-03 0.0000000000000000e+00  1.5058042907471653e-01 1.3214025072376547e-04 0.0000000000000000e+00  2.0360817105671902e-01 -6.1989343758789279e-06 0.0000000000000000e+00  2.0362104165789854e-01 -2.9493703293735127e-06 0.0000000000000000e+00  2.0268315466829720e-01 2.1958146592381892e-06 0.0000000000000000e+00  2.0344118234084371e-01 6.6803964840113417e-06 0.0000000000000000e+00  1.5534953857470341e-01 8.6328359381559367e-07 0.0000000000000000e+00  1.6282282181086083e-01 4.6084017951464635e-06 0.0000000000000000e+00  2.1183499124720520e-01 2.0488358353206043e-01 0.0000000000000000e+00  1.4586305611403319e-02 6.2121456150040298e-02 0.0000000000000000e+00  1.5044923066372717e-01 2.7093938676327884e-04 0.0000000000000000e+00  2.2333554102154826e-01 -7.0241757100723053e-03 0.0000000000000000e+00  1.8954967787514765e-01 5.7155899096877222e-05 0.0000000000000000e+00  2.0341575308434082e-01 3.5013915339689704e-05 0.0000000000000000e+00  2.0374787163201522e-01 -4.6161424196391581e-04 0.0000000000000000e+00  2.0231799821370178e-01 5.3081847098730696e-06 0.0000000000000000e+00  1.6437366565290917e-01 1.0004375039817191e-04 0.0000000000000000e+00  2.0329458046357712e-01 7.3423901674383126e-05 0.0000000000000000e+00  2.0703655728117296e-01 -3.6567777020645427e-03 0.0000000000000000e+00  1.5883842378132831e-01 6.1674006925818972e-06 0.0000000000000000e+00  2.0277815306676594e-01 2.3758383647868413e-05 0.0000000000000000e+00  1.5641075835907059e-01 -5.2027622617794444e-07 0.0000000000000000e+00  1.4063924175638534e-01 7.4017093599549111e-02 0.0000000000000000e+00  2.3340243134325195e-01 1.3327300892707172e-01 0.0000000000000000e+00  1.9442264264773812e-01 3.0698979764836733e-02 0.0000000000000000e+00  1.4325705272117420e-01 5.2141656324513881e-04 0.0000000000000000e+00  2.1418086278869741e-01 -1.6918350100455469e-02 0.0000000000000000e+00  1.9911577517994261e-01 -3.2639137670937299e-04 0.0000000000000000e+00  3.9232967340647151e-01 2.0656158587304036e-02 0.0000000000000000e+00  2.0316955742911424e-01 6.4485499673408068e-05 0.0000000000000000e+00  2.0055104482171526e-01 5.0689757668593320e-05 0.0000000000000000e+00  3.4609632839446985e-01 1.7916144593589281e-01 0.0000000000000000e+00  3.0183888480650817e-01 3.9672402614097456e-02 0.0000000000000000e+00  2.3290082578015436e-01 8.0995532890539387e-02 0.0000000000000000e+00  2.0361185566402462e-01 2.4050442337683455e-05 0.0000000000000000e+00  1.9885743772967424e-01 -1.4037097558859572e-05 0.0000000000000000e+00  2.0293309231130433e-01 -6.0366124929437302e-06 0.0000000000000000e+00  3.4577375256404663e-01 -1.1892521595667523e-01 0.0000000000000000e+00  1.2132933744576639e-01 2.8753889590715630e-02 0.0000000000000000e+00  1.4752377413273954e-01 5.6831262751685594e-05 0.0000000000000000e+00  2.2387895797294344e-01 2.5343597940268699e-02 0.0000000000000000e+00  1.6889904146145018e-01 7.0861092670443104e-02 0.0000000000000000e+00  2.0219948466156301e-01 8.7853484316898422e-05 0.0000000000000000e+00  1.5652708925621517e-01 7.8150214551513751e-05 0.0000000000000000e+00  1.7856421947045834e-01 -1.2809255009619881e-03 0.0000000000000000e+00  4.6754681644839485e-01 2.7402367488166667e-02 0.0000000000000000e+00  1.9435651264226078e-01 -8.5492708599909598e-03 0.0000000000000000e+00  2.1612940007508319e-01 -1.2950826236159157e-02 0.0000000000000000e+00  2.0021368822950483e-01 4.6628525084896646e-06 0.0000000000000000e+00  1.3925119019650442e-01 -9.2529297508444804e-03 0.0000000000000000e+00  2.0013369916471385e-01 5.8436311556441569e-05 0.0000000000000000e+00  2.0324384264376361e-01 7.9690005918056685e-05 0.0000000000000000e+00  1.9874245199188242e-01 -4.1231515220179388e-04 0.0000000000000000e+00  9.5666968015207327e-02 -1.1169580850230499e-02 0.0000000000000000e+00  1.2825009562079026e-01 7.6889514215044535e-07 0.0000000000000000e+00  1.2865310791857687e-01 -1.7738818420049703e-05 0.0000000000000000e+00  1.5876104813488665e-01 -7.2285221657998042e-02 0.0000000000000000e+00  5.8374458193748896e-02 1.5308715093671273e-02 0.0000000000000000e+00  1.9852386667246208e-01 4.5964022201955551e-06 0.0000000000000000e+00  1.3638277790830078e-01 5.4719886708692820e-06 0.0000000000000000e+00  4.2502761136512440e-01 -6.5497269663776087e-02 0.0000000000000000e+00  2.0287018626348272e-01 2.0812199002906473e-05 0.0000000000000000e+00  2.0064659640556448e-01 -3.0454737281045487e-06 0.0000000000000000e+00  3.5785304725428145e-02 4.7772096996532989e-08 0.0000000000000000e+00  1.7623842110342813e-01 -2.9178159610726905e-02 0.0000000000000000e+00  1.5919351884794114e-01 4.0721612814658366e-02 0.0000000000000000e+00  2.0330350510555828e-01 1.0769471482978100e-05 0.0000000000000000e+00  1.9979126899990174e-01 3.6904550459823649e-05 0.0000000000000000e+00  1.1435491726833738e-01 1.9730169026505209e-03 0.0000000000000000e+00  1.9943408592888909e-01 -6.0272360467410364e-04 0.0000000000000000e+00  3.8113199425701400e-01 3.5808112784623577e-02 0.0000000000000000e+00  1.4554794618329214e-01 5.4429745604131445e-05 0.0000000000000000e+00  1.2677604710030596e-01 1.5834859689015659e-05 0.0000000000000000e+00  1.3925971739252119e-01 2.4334188114650054e-07 0.0000000000000000e+00  -3.3125696781987684e-03 5.1765366146054516e-02 0.0000000000000000e+00  3.3356384365608716e-01 9.4367648946676694e-09 0.0000000000000000e+00  1.3451550031466969e-01 9.5334995140701443e-05 0.0000000000000000e+00  4.1173694991649562e-01 -5.9633579217090822e-03 0.0000000000000000e+00  1.4344412503727433e-01 6.0043635776432876e-06 0.0000000000000000e+00  2.0157203725895617e-01 -1.3638453518589691e-03 0.0000000000000000e+00  1.1852650797796765e-01 1.6520892089786226e-07 0.0000000000000000e+00  2.0292443358056800e-01 3.0260354728912233e-07 0.0000000000000000e+00  1.3929931767311099e-01 1.0612318358262161e-05 0.0000000000000000e+00  2.1733313662386988e-01 9.6541351389525114e-08 0.0000000000000000e+00  1.3931198418470683e-01 -2.4513386619644017e-06 0.0000000000000000e+00  1.9939687180726626e-01 1.1463205064132307e-04 0.0000000000000000e+00  2.0341347475585198e-01 -1.5486083204275418e-06 0.0000000000000000e+00  1.3551970163518057e-01 8.5664842158063187e-05 0.0000000000000000e+00  1.1004210257794121e-01 8.6091742673606681e-05 0.0000000000000000e+00  1.9579697654623929e-01 4.4475140925131045e-05 0.0000000000000000e+00  1.0676559954170856e-01 -1.3773110723848832e-03 0.0000000000000000e+00  2.9657779908446491e-01 -2.5358309432757943e-02 0.0000000000000000e+00  2.3546176250527154e-01 -2.7210497851403594e-02 0.0000000000000000e+00  4.2171144907387875e-01 -9.2607435413435135e-02 0.0000000000000000e+00  1.2822073367823614e-01 2.2059753938530540e-05 0.0000000000000000e+00  3.0193575090666497e-01 -1.0158398555032593e-01 0.0000000000000000e+00  1.8707024654210044e-01 -2.3477008117718353e-02 0.0000000000000000e+00  1.9646856674891039e-01 7.4375829280149752e-06 0.0000000000000000e+00  2.0188986574714032e-01 -2.3650431311163025e-03 0.0000000000000000e+00  1.0945032063440259e-01 9.4302966188363362e-06 0.0000000000000000e+00  1.1221256332181541e-01 1.4835445731358396e-03 0.0000000000000000e+00  2.0491851183154886e-01 -1.7