<?xml version="1.0"?>
<VTKFile type="UnstructuredGrid"  version="0.1"  >
<UnstructuredGrid>
<Piece  NumberOfPoints="1404" NumberOfCells="2604">
<Points>
<DataArray  type="Float64"  NumberOfComponents="3"  format="ascii">0 0.41 0  0 0 0  2.2 0 0  2.2 0.41 0  0.2353553390593274 0.2353553390593274 0  0.25 0.2 0  0.2353553390593274 0.1646446609406726 0  0.2 0.15 0  0.1646446609406726 0.1646446609406726 0  0.15 0.2 0  0.1646446609406726 0.2353553390593274 0  0.2 0.25 0  0.6923879532511287 0.188268343236509 0  0.7 0.15 0  0.6923879532511287 0.1117316567634909 0  0.6707106781186547 0.07928932188134523 0  0.6382683432365089 0.05761204674887133 0  0.6 0.04999999999999999 0  0.5617316567634909 0.05761204674887134 0  0.5292893218813453 0.07928932188134524 0  0.5076120467488713 0.111731656763491 0  0.5 0.15 0  0.5076120467488713 0.188268343236509 0  0.5292893218813453 0.2207106781186547 0  0.561731656763491 0.2423879532511287 0  0.6 0.25 0  0.6382683432365089 0.2423879532511287 0  0.6707106781186547 0.2207106781186547 0  1.1 0 0  0 0.205 0  1.1 0.41 0  0.55 0 0  0.55 0.41 0  0.275 0 0  0.8250000000000001 0 0  0.275 0.41 0  0.8250000000000001 0.41 0  0.6875 0 0  0.61875 0 0  1.65 0.41 0  1.65 0 0  1.375 0 0  1.375 0.41 0  1.925 0 0  1.925 0.41 0  1.5125 0.205 0  1.7875 0.205 0  0.9625000000000001 0.205 0  1.2375 0.205 0  2.2 0.205 0  1.99375 0.2152743902439024 0  0.4125 0.41 0  2.0625 0 0  2.0625 0.41 0  2.2 0.3075 0  1.7875 0.41 0  1.375 0.1486128048780488 0  1.5125 0 0  1.7875 0 0  1.5125 0.41 0  0.9625000000000001 0.41 0  0.4125 0 0  0.1375 0 0  0.1375 0.41 0  0.6875 0.41 0  0.9625000000000001 0 0  1.2375 0 0  1.1 0.1486128048780488 0  1.2375 0.41 0  1.65 0.1486128048780487 0  0.823495464168302 0.2603780552348366 0  0.3738707794507017 0.2720196349488618 0  0.3662291281331582 0.1311456406657909 0  1.676715909090909 0.2793064024390244 0  1.126715909090909 0.2793064024390244 0  1.348284090909091 0.2793064024390244 0  0.8287581077665108 0.1302150898054257 0  1.894702181800738 0.1282910975492754 0  2.092797818199262 0.1282910975492754 0  1.85625 0.3075 0  0 0.3075 0  0 0.1025 0  2.099172119769978 0.25625 0  0.4752414543992246 0.3180372603390748 0  1.99375 0.08395950269330846 0  1.459960956013612 0.3075 0  1.569025960719943 0.2986889805672169 0  1.03125 0.3278689922742084 0  1.959375 0.3126371951219512 0  1.749222215368287 0.1025 0  1.275777784631713 0.1025 0  0.9228016959331474 0.3075 0  1.000777784631713 0.1025 0  2.2 0.1025 0  1.225938124459196 0.3075 0  1.550777784631713 0.1025 0  1.44375 0.07430640243902442 0  1.16875 0.07430640243902439 0  0.7562500000000001 0.3358727844323386 0  0.89375 0 0  1.899250267340833 0.2229966846119207 0  0.61875 0.41 0  1.766482954545455 0.2934032012195123 0  1.046078563095834 0.2389031808701145 0  1.421109702350723 0.2261157654379721 0  0.07567171807980319 0.25625 0  0.2511897295290552 0.3235829392832554 0  0.07655002503762308 0.1488653460959645 0  0.1377245246847496 0.3206030474919778 0  0.6694099692696568 0.3242771941727899 0  0.9168971191497528 0.1295727156104653 0  0.7562500000000001 0 0  2.118919042110979 0.3422084711244843 0  2.13125 0 0  0.06875000000000001 0 0  1.30625 0.41 0  1.597888256393107 0.2173787389261347 0  0.34375 0.41 0  0.2493272016354703 0.08091360081773515 0  0.5588896233436766 0.3264056208677571 0  1.829299675393195 0.07400700849299596 0  0.1334079128307869 0.08523463035786674 0  1.71875 0.41 0  0.06875000000000001 0.41 0  1.16875 0.41 0  2.038220665644273 0.332420740103091 0  0.8810647413215221 0.2027360103977071 0  0.34375 0 0  0.7453891198966415 0.2471459041008237 0  0.42112093004955 0.1988123139090554 0  0.8314023090855964 0.3351170841770613 0  0.89375 0.41 0  0.7906250000000001 0.06615386481594063 0  1.452769549894695 0.1548122580621249 0  1.369219062229598 0.07430640243902442 0  1.30625 0 0  1.07420695807087 0.07430640243902439 0  1.720943423819132 0.1714577452753128 0  1.157188124459196 0.205 0  1.304056576180868 0.1714577452753128 0  1.67579304192913 0.07430640243902437 0  1.209670467133757 0.136210026696477 0  0.4312800784902823 0.08036147352247747 0  0.8723959680194693 0.07066860609690805 0  1.025335513626278 0.1700681449722324 0  0.7945632284247136 0.1940204203251442 0  0.378125 0.3452261501101892 0  0.3307109909790086 0.2037165635083759 0  0.3009701032039409 0.2702970083403109 0  0.20625 0.41 0  1.58125 0 0  0.4812500000000001 0 0  0.9838963872396855 0.2722244191167347 0  0.06772484939107212 0.3260067317374387 0  0.20625 0 0  1.58125 0.41 0  1.631724228912893 0.3381867502687533 0  1.825608881788174 0.14499488549201 0  1.85625 0 0  1.44375 0 0  1.44375 0.41 0  1.85625 0.41 0  2.13125 0.41 0  0.7562500000000001 0.41 0  0.4812500000000001 0.41 0  1.16875 0 0  1.03125 0.41 0  1.03125 0 0  1.71875 0 0  1.99375 0 0  1.99375 0.41 0  0.9408708167433545 0.0651989315768642 0  1.340625 0.3489494290853124 0  1.134375 0.3489494290853123 0  1.700180620188976 0.3438659752031281 0  0.29668452290037 0.1318471691375986 0  0.3175441051360096 0.06496934809856265 0  0.06509151636162461 0.08140814015999148 0  2.135782184673599 0.07126652247502523 0  1.668441847249787 0.2129203728327609 0  1.295782514339747 0.2378437748815763 0  1.409375 0.3520314716057996 0  2.129248544730567 0.1906135162504124 0  2.060771381434487 0.1989445750470348 0  2.013252586573865 0.1496169464686054 0  1.942766402200229 0.1734448904596831 0  1.895522487186454 0.06076163953489683 0  2.069553871656643 0.06605731020975725 0  0.4670911801404742 0.2498408582391372 0  0.7622743084658112 0.1264100838268133 0  1.274680914880868 0.3520219391081363 0  0.3148669572599245 0.3331753056385887 0  1.614713220494657 0.09473434380863296 0  1.72990325744076 0.2380068107952482 0  1.356580098625191 0.2120393231351682 0  2.034370752044885 0.2668681600792073 0  1.51768709249349 0.3426260931494756 0  1.561883724969884 0.1650446847858835 0  1.197344062229598 0.2523725417393646 0  1.804085235518364 0.3468178408964637 0  1.817887819205233 0.2589243285818559 0  1.905897727272727 0.3485060975609756 0  0.7296439733931823 0.06337466644369745 0  0.4250935971865949 0.1394919578475796 0  0.3773030136511669 0.05130372097998036 0  1.192836486056382 0.3562350748565544 0  1.1029124365364 0.226143510831178 0  1.28257088594801 0.2944411014911587 0  0.1905185804731426 0.06029880676029167 0  1.474860187679412 0.2504218616229368 0  1.406767003493824 0.2829282258560709 0  0.5209826960981064 0.2830664557824064 0  0.5131119502780163 0.3617405848213254 0  0.1948220106098172 0.3081993407644811 0  1.845656689180403 0.1998310418452388 0  2.144958525570388 0.2909790873294231 0  2.2 0.15375 0  0.8833025251326762 0.2625402923007629 0  0.171875 0.3653875762360952 0  1.57794966442982 0.3540357145964566 0  0.446875 0.366068291212731 0  0.4272051715206439 0.2891929346190664 0  1.508991196088596 0.1421783375065625 0  1.50436820029908 0.06143401634903343 0  1.223857000523521 0.08235548624535324 0  0.6137904613287555 0.3066826366281556 0  1.153316824384777 0.1289850171317838 0  0.9751573703656133 0.327632618473408 0  2.148922302309752 0.1258841779285271 0  0.9281250000000001 0.3643758685795699 0  1.621993280276081 0.2841214267927899 0  1.550118654119087 0.2461998729100966 0  1.327182649291491 0.1216967252533594 0  0.9939955742738924 0.04663549843168518 0  1.753125 0.04556020050186112 0  1.271875 0.04556020050186116 0  0.9734326767716519 0.1506854560854393 0  0.103125 0.3675775577080512 0  1.94956388244759 0.1180512551534177 0  1.949997712993411 0.04965831614304109 0  0.717433898748555 0.295596016333797 0  1.771961817615021 0.1530278789497521 0  1.909246823951428 0.2812757146784527 0  0 0.35875 0  1.050632804931928 0.1226269704412814 0  0.05695108326502596 0.2024009637347154 0  1.948575539857022 0.2445328248721197 0  1.697271520964565 0.1233917627620729 0  1.065625 0.3689344961371042 0  1.085849084308977 0.3170853572226867 0  0.1015495998772944 0.04226029099983852 0  1.577403511714593 0.05463601888079143 0  1.751571320346033 0.3651102912045228 0  2.2 0.35875 0  0.7441773632462837 0.1786786606458751 0  0 0.05125 0  1.466879772203159 0.3611261772912453 0  0.6282230348858767 0.3577675483994025 0  1.990280163552011 0.3564754268533217 0  1.17471064520912 0.2990917256188288 0  0 0.25625 0  2.2 0.25625 0  2.2 0.05125 0  0 0.15375 0  1.853978576207987 0.35875 0  1.515638456102889 0.2882700110184686 0  2.150453692751374 0.2387066338105111 0  1.323782677156475 0.04897634338873398 0  1.409375 0.03715320121951221 0  1.406484531114799 0.1087852750766809 0  1.134375 0.03715320121951219 0  0.721875 0.3729363922161693 0  0.7941695928236929 0.3696489254637395 0  0.7934827162619036 0.3013409431456604 0  1.627401732573545 0.04552157221025036 0  0.9352049974617431 0.2507047965699472 0  0.8763260682738339 0.3611103317460093 0  2.045405893604797 0.1105340662939892 0  1.255408269734577 0.1577307500159216 0  2.028125 0.03707597992059326 0  1.003030137506755 0.3689344961371042 0  1.248258025468107 0.2565907092181813 0  1.203125 0.03661323374043041 0  0.4800125512335631 0.0549472816999725 0  2.072662025974815 0.2975086504196739 0  0.240625 0.3729825336867542 0  1.113252391110535 0.10238286244357 0  1.071052763974265 0.1885202618768825 0  0.8738809401657862 0.3106483608284829 0  0.6786819423003397 0.2677558482644021 0  1.887722846421017 0.1760882698830035 0  1.472640588990488 0.1118278026240017 0  0.5843750000000001 0.41 0  1.865937103925594 0.2604137786483804 0  1.463913572748262 0.2030442564990043 0  1.376426316059077 0.3186741374914345 0  0.1038643885363755 0.2162701735320032 0  0.1769473813227781 0.1070849728467114 0  0.458787839809176 0.171541653775316 0  0.240625 0 0  0.04179569703428024 0.2877217852556549 0  0.1258346557601885 0.2699740073054968 0  1.722140693354707 0.282908100935778 0  0.41206179117512 0.2448172567039922 0  0.3702471778075604 0.2265217604228704 0  0.3714881805374215 0.1786967818665642 0  1.77397096061971 0.2481483237422926 0  2.105123889160691 0.03743885948498647 0  1.001138337938679 0.229719337663998 0  1.051242910646791 0.2854826559431138 0  1.395420985247586 0.18
[...]
<PointData  Vectors="f_37"> 
<DataArray  type="Float64"  Name="f_37"  NumberOfComponents="3" format="ascii">1.9166991869479425e-07 -3.9082348282517289e-08 0.0000000000000000e+00  -4.4594363766092546e-06 -3.4678320723649676e-07 0.0000000000000000e+00  -8.9122123763249834e-07 1.4405350760691137e-09 0.0000000000000000e+00  -1.1229246711533605e-06 -6.3271353766828759e-10 0.0000000000000000e+00  -3.6781744980081103e-07 1.1599085357445060e-06 0.0000000000000000e+00  -1.5301171594600593e-07 1.6877345193805365e-06 0.0000000000000000e+00  1.1546870002719690e-07 6.5415259535279749e-07 0.0000000000000000e+00  -1.9669000370276990e-06 -4.5805942554266684e-07 0.0000000000000000e+00  -9.5750822436803213e-07 4.2739054729759247e-07 0.0000000000000000e+00  -3.8865050924024093e-08 -3.4117793078599633e-07 0.0000000000000000e+00  -6.9839826290081880e-07 -2.5135850705740213e-07 0.0000000000000000e+00  -4.5206700126938075e-07 -1.9160783354957881e-07 0.0000000000000000e+00  1.1801377592483482e-06 -2.7450912843944725e-06 0.0000000000000000e+00  -4.1080277078240633e-07 -4.3062051100031811e-06 0.0000000000000000e+00  -8.6294175336256459e-07 -2.1800262168720942e-06 0.0000000000000000e+00  -1.6003246641595984e-06 4.4358093223515085e-07 0.0000000000000000e+00  2.3630090877061397e-06 1.4149691360882247e-06 0.0000000000000000e+00  3.1290486782850180e-01 8.6674947478823761e-02 0.0000000000000000e+00  5.8541542855877179e-06 3.7723593076892230e-06 0.0000000000000000e+00  6.4535943471259753e-06 7.0447751957106746e-07 0.0000000000000000e+00  -2.3048551180347091e-06 -4.2481135051422340e-06 0.0000000000000000e+00  6.4580264045810339e-08 4.1974432600107121e-06 0.0000000000000000e+00  5.2056806983920603e-06 5.3052835565890165e-06 0.0000000000000000e+00  4.5394703482249583e-06 -4.9166451859262225e-06 0.0000000000000000e+00  -4.0536222691689532e-06 -6.3458818842404824e-06 0.0000000000000000e+00  -7.7724265568013174e-06 -1.4186572999123429e-06 0.0000000000000000e+00  -5.9049704964899873e-06 1.1880675762403816e-06 0.0000000000000000e+00  4.5241506522668244e-07 -4.4053248125125617e-07 0.0000000000000000e+00  -1.8546018961314844e-06 2.1090068868139682e-07 0.0000000000000000e+00  1.6583337403025442e-01 -2.1535042031035257e-07 0.0000000000000000e+00  -2.3969724974984092e-06 -1.3714978776771326e-07 0.0000000000000000e+00  6.3067026554662816e-06 3.3134073631492663e-06 0.0000000000000000e+00  -1.6955982500748535e-06 -2.7757267609747172e-07 0.0000000000000000e+00  2.5313102258200014e-07 1.2778063978504926e-07 0.0000000000000000e+00  1.2652332877785397e-06 -2.6166763992947742e-07 0.0000000000000000e+00  -1.7723477100151291e-06 -9.7694907122753149e-08 0.0000000000000000e+00  -6.5026735788762870e-07 1.7156384325754362e-07 0.0000000000000000e+00  -2.1754128648369088e-06 -4.7227175466754581e-07 0.0000000000000000e+00  -7.5559333966384422e-06 -2.5419710056622083e-07 0.0000000000000000e+00  -1.2662728039815360e-06 -4.2345927951833480e-10 0.0000000000000000e+00  -1.6357492813084697e-06 -1.7631797410653933e-09 0.0000000000000000e+00  -9.1058654838456548e-07 -6.6054939888075975e-09 0.0000000000000000e+00  -5.7916605127515112e-07 -7.6017359472878537e-09 0.0000000000000000e+00  -7.3687695920373869e-07 8.3912430685726645e-11 0.0000000000000000e+00  -2.1514355380553720e-07 -7.1726117310601750e-10 0.0000000000000000e+00  2.0537063027116487e-01 1.2912149369773983e-04 0.0000000000000000e+00  2.0536597978628893e-01 3.6484093741334504e-05 0.0000000000000000e+00  2.3484987772500793e-01 -1.0877092442678078e-01 0.0000000000000000e+00  2.0635278048895309e-01 -3.5502079296690289e-03 0.0000000000000000e+00  2.0538266688195297e-01 -1.0149693734367301e-05 0.0000000000000000e+00  2.0534927511024814e-01 6.4843684270257803e-06 0.0000000000000000e+00  4.5842873131475824e-08 1.1751188650773248e-07 0.0000000000000000e+00  -2.3167796586126968e-08 9.2038471410404407e-10 0.0000000000000000e+00  -8.0814492883814065e-07 1.6967270986826744e-09 0.0000000000000000e+00  1.9322985439189250e-01 -3.5988676819757870e-07 0.0000000000000000e+00  -1.1194182676233783e-06 -7.2181190379909156e-10 0.0000000000000000e+00  2.0379055649662600e-01 -1.2264740195165404e-04 0.0000000000000000e+00  -1.6034962391199223e-06 -3.0037334671853065e-09 0.0000000000000000e+00  -1.3372937892385955e-06 -6.3270163787522319e-10 0.0000000000000000e+00  -8.9048624063603613e-07 -3.2054245107571113e-09 0.0000000000000000e+00  1.5338406858400093e-06 2.5071770630743050e-07 0.0000000000000000e+00  1.3112982117771373e-07 -4.1694483937836782e-07 0.0000000000000000e+00  -9.8551028673855870e-07 -3.9626612471651599e-08 0.0000000000000000e+00  5.4581149766317907e-07 2.4513395805668697e-07 0.0000000000000000e+00  -1.1445528308577907e-06 -1.1888463663286683e-07 0.0000000000000000e+00  -3.1147105086958681e-06 4.2155072711218163e-07 0.0000000000000000e+00  6.8513154714563397e-07 1.1080845782160383e-08 0.0000000000000000e+00  1.9428592406357781e-01 -2.5423746044072170e-02 0.0000000000000000e+00  -7.0717822366207988e-07 -1.8378199092257245e-08 0.0000000000000000e+00  2.0408202818942187e-01 7.7026414397458003e-05 0.0000000000000000e+00  3.4412755485298785e-01 -9.4698765298842455e-02 0.0000000000000000e+00  9.3164319421795566e-02 1.0839867968205130e-02 0.0000000000000000e+00  3.1126833659734499e-01 1.2561320257648398e-01 0.0000000000000000e+00  2.0191223308706019e-01 6.3512373179984511e-05 0.0000000000000000e+00  2.1524337862662238e-01 -4.4731263755891561e-03 0.0000000000000000e+00  2.0238850644171016e-01 3.5839659048518253e-05 0.0000000000000000e+00  3.0089401232232822e-02 2.7353275962184967e-02 0.0000000000000000e+00  2.0151768947585419e-01 2.6287140989810519e-05 0.0000000000000000e+00  2.0147384557966030e-01 4.8690857879391824e-06 0.0000000000000000e+00  1.9322451883490396e-01 1.4660725033771432e-05 0.0000000000000000e+00  7.5234857022094162e-02 4.6858455475627606e-08 0.0000000000000000e+00  2.7319258996367934e-01 1.3256611789218610e-07 0.0000000000000000e+00  2.0439613413693208e-01 2.3026237510850716e-07 0.0000000000000000e+00  2.5623127504648835e-01 8.6174612809376466e-02 0.0000000000000000e+00  1.8078906086891119e-01 1.6013389588239988e-06 0.0000000000000000e+00  1.9308614413551270e-01 2.0773133156209482e-04 0.0000000000000000e+00  1.9687789166798450e-01 1.3232992981791322e-04 0.0000000000000000e+00  1.9464244230501682e-01 -1.5239387392902281e-03 0.0000000000000000e+00  1.9049092904664958e-01 -2.8743727773484700e-06 0.0000000000000000e+00  1.9328351430223098e-01 1.9420759139562234e-05 0.0000000000000000e+00  1.9207677679181809e-01 -8.0066773115681665e-04 0.0000000000000000e+00  3.1390997305458573e-01 -6.8469199239363676e-02 0.0000000000000000e+00  1.3548515286958179e-01 -4.2477139921044571e-02 0.0000000000000000e+00  1.9323127629509484e-01 -6.1540063574742867e-06 0.0000000000000000e+00  1.9524099752515323e-01 4.4277194438982347e-05 0.0000000000000000e+00  1.9328487507897865e-01 1.2526520858020731e-04 0.0000000000000000e+00  1.7144816335941560e-01 1.9085327488390296e-04 0.0000000000000000e+00  1.6626749466010010e-01 -3.5925090763025353e-03 0.0000000000000000e+00  4.2067702153483699e-01 -6.0676807707435117e-02 0.0000000000000000e+00  -8.9863335184726898e-07 1.3341704060501125e-07 0.0000000000000000e+00  2.0530678741039862e-01 1.6122165178508850e-05 0.0000000000000000e+00  -2.3947986176194859e-07 -2.0943970039815080e-07 0.0000000000000000e+00  1.9863629449235451e-01 4.9846882163764987e-05 0.0000000000000000e+00  2.4426232487175534e-01 -4.0235865107347994e-02 0.0000000000000000e+00  2.0534617503868580e-01 4.1515442146134949e-05 0.0000000000000000e+00  1.2575893214218559e-01 6.9241540597679410e-02 0.0000000000000000e+00  2.3091370021636320e-01 2.2779914632958947e-02 0.0000000000000000e+00  2.0923387948427749e-01 2.3280125146937513e-02 0.0000000000000000e+00  1.4827350272704440e-01 7.2329389191961135e-02 0.0000000000000000e+00  4.6707595062832985e-01 -3.0409831381849356e-02 0.0000000000000000e+00  8.4383517785063297e-02 -5.5281819972032034e-02 0.0000000000000000e+00  6.5789071260890293e-07 -3.3229043505319378e-07 0.0000000000000000e+00  1.6314347688457567e-01 6.0436203085174783e-06 0.0000000000000000e+00  -2.0271934735672704e-06 -4.2375993721672610e-09 0.0000000000000000e+00  -1.3558373875935958e-06 1.8118489206983576e-08 0.0000000000000000e+00  -4.3988446200452096e-07 -2.6861555059916186e-09 0.0000000000000000e+00  2.0532235731330514e-01 1.1707120385514906e-04 0.0000000000000000e+00  -2.2562975402688511e-06 -2.2982998511852877e-07 0.0000000000000000e+00  4.0422836725726430e-01 4.8445058139755769e-02 0.0000000000000000e+00  3.9760320781388236e-01 7.8359812194584308e-02 0.0000000000000000e+00  1.7086024781378339e-01 -3.1337772147984824e-06 0.0000000000000000e+00  3.4465336929320062e-01 1.3213814935264063e-02 0.0000000000000000e+00  -1.3289580428895347e-06 -6.1380684362578146e-10 0.0000000000000000e+00  8.5446325059597487e-08 -9.4922578787590597e-08 0.0000000000000000e+00  -1.6029013047316865e-06 -4.0360727102162836e-08 0.0000000000000000e+00  1.7469183800144675e-01 -2.7783084033422710e-06 0.0000000000000000e+00  1.9177645013227618e-01 -9.4904621237342127e-02 0.0000000000000000e+00  -3.7930541668211094e-07 -1.8213510538284446e-07 0.0000000000000000e+00  1.9122812433814437e-01 -3.2757521283222221e-02 0.0000000000000000e+00  1.7617046800116171e-01 1.7847256794558533e-01 0.0000000000000000e+00  3.5094915041600544e-01 -6.4848135909481519e-02 0.0000000000000000e+00  3.0149292057232303e-06 3.1673424354215068e-07 0.0000000000000000e+00  8.8768330361521763e-02 4.2811394555390778e-02 0.0000000000000000e+00  2.0442706638513025e-01 1.3000155225024101e-04 0.0000000000000000e+00  1.7150383122924215e-01 1.8130660109316808e-04 0.0000000000000000e+00  6.9535802705126703e-08 -3.1849173982598996e-09 0.0000000000000000e+00  1.4953102051333292e-01 -1.4162527953531127e-02 0.0000000000000000e+00  2.0505818227453224e-01 4.8397699979510218e-05 0.0000000000000000e+00  2.0934984443785670e-01 -1.1419305628190430e-02 0.0000000000000000e+00  2.0465185298679897e-01 -1.1961389900064534e-03 0.0000000000000000e+00  1.7118526852850352e-01 4.5078913961192987e-05 0.0000000000000000e+00  1.9951781354049963e-01 -4.8547484920492285e-03 0.0000000000000000e+00  2.1134001802488486e-01 2.2266984116294356e-02 0.0000000000000000e+00  5.9127213986041156e-02 -1.0643702305881914e-03 0.0000000000000000e+00  1.9394375215092449e-01 -6.5553872729889093e-02 0.0000000000000000e+00  6.3825983339597797e-02 1.3886242899473175e-02 0.0000000000000000e+00  2.1729247690273126e-01 5.3901873711116573e-03 0.0000000000000000e+00  4.9805841183366992e-02 2.2550525511466635e-02 0.0000000000000000e+00  8.5050419652246759e-02 -2.2895205233623012e-02 0.0000000000000000e+00  -4.0643601659434087e-07 4.1189003076183246e-07 0.0000000000000000e+00  -7.6180143418401438e-07 -2.9445307104183069e-09 0.0000000000000000e+00  -1.4210832783722262e-07 4.0796632703326757e-07 0.0000000000000000e+00  2.9019185742523990e-01 -6.0148441317365346e-02 0.0000000000000000e+00  7.8150376739167304e-02 2.8777675603211293e-02 0.0000000000000000e+00  -2.3581643745904225e-06 -5.6674067276723533e-08 0.0000000000000000e+00  -9.5374466824568986e-07 -1.2215798795925063e-09 0.0000000000000000e+00  1.6813965175484494e-01 6.0487273985241279e-05 0.0000000000000000e+00  2.0370944027695323e-01 2.1036798162920248e-05 0.0000000000000000e+00  -9.7706069835791470e-07 2.4148416118521907e-10 0.0000000000000000e+00  -1.1861182861978930e-06 -4.5762456301194209e-09 0.0000000000000000e+00  -1.1332116343393306e-06 -5.6879911451143908e-09 0.0000000000000000e+00  -3.1390974882356095e-07 1.6955680118631337e-10 0.0000000000000000e+00  -2.8334168292286480e-07 -5.0129366324782159e-10 0.0000000000000000e+00  1.3129825267416302e-06 -2.0018416191288374e-07 0.0000000000000000e+00  -3.6976664431128418e-06 -2.0236755864826056e-07 0.0000000000000000e+00  -7.9632993773346740e-07 1.0477106381752560e-07 0.0000000000000000e+00  -1.0700019133139779e-06 -4.4627512119963017e-10 0.0000000000000000e+00  -2.2326428078021855e-06 2.6850152321912718e-07 0.0000000000000000e+00  2.7181252271887639e-09 -1.6267498453887493e-09 0.0000000000000000e+00  -1.2505018461240991e-06 1.4179757667532856e-09 0.0000000000000000e+00  -5.1319398256967592e-07 -4.9620451732708018e-10 0.0000000000000000e+00  7.8803324214986870e-02 -2.0961428425382206e-02 0.0000000000000000e+00  1.5279157185332723e-01 3.1919453660977974e-04 0.0000000000000000e+00  1.5233093893210101e-01 1.9755423730373075e-03 0.0000000000000000e+00  1.6085968389350810e-01 2.6579844017032372e-05 0.0000000000000000e+00  3.0424660088786037e-01 8.7355876197493215e-02 0.0000000000000000e+00  3.2547120504109506e-01 5.9750470565960022e-02 0.0000000000000000e+00  3.1562764176618091e-01 2.5984498490505287e-02 0.0000000000000000e+00  1.6757543871765895e-01 6.3118659258213937e-06 0.0000000000000000e+00  2.0534774211151066e-01 8.0504636188863783e-05 0.0000000000000000e+00  2.0605138294284431e-01 -9.9265839070729876e-04 0.0000000000000000e+00  1.4808096695798470e-01 1.9767250524756747e-04 0.0000000000000000e+00  2.0534134390228498e-01 -4.3146699762915385e-06 0.0000000000000000e+00  2.0536639785034835e-01 -9.1794711127414374e-07 0.0000000000000000e+00  2.0409103985509988e-01 3.4052530752227078e-06 0.0000000000000000e+00  2.0510551547314501e-01 8.7489853419908359e-06 0.0000000000000000e+00  1.5312339632029628e-01 3.0066925234004514e-06 0.0000000000000000e+00  1.6078707493858083e-01 7.1676656382117922e-06 0.0000000000000000e+00  2.1353867782246241e-01 2.0865478165251664e-01 0.0000000000000000e+00  1.9189236166970824e-02 6.7477553392294179e-02 0.0000000000000000e+00  1.4761547573313566e-01 4.6813974962227561e-04 0.0000000000000000e+00  2.2128718487702928e-01 -4.7420155483601694e-03 0.0000000000000000e+00  1.8899579138725101e-01 7.9206462099986233e-05 0.0000000000000000e+00  2.0506664565754007e-01 4.9192919602381473e-05 0.0000000000000000e+00  2.0552556534580374e-01 -3.5881945761530066e-04 0.0000000000000000e+00  2.0360778463464374e-01 6.0698966211085011e-06 0.0000000000000000e+00  1.6231442839405980e-01 1.3034897616454077e-04 0.0000000000000000e+00  2.0491243247244395e-01 1.2492994307444736e-04 0.0000000000000000e+00  2.0957116028982373e-01 -3.7047116125896382e-03 0.0000000000000000e+00  1.5668964244713149e-01 8.3373858457902362e-06 0.0000000000000000e+00  2.0420711824737367e-01 2.9571114360531941e-05 0.0000000000000000e+00  1.5420395188790717e-01 1.5612008361553008e-06 0.0000000000000000e+00  1.4102816157818693e-01 7.6645478621123864e-02 0.0000000000000000e+00  2.4038843336856966e-01 1.3717331652278286e-01 0.0000000000000000e+00  1.9763685680910045e-01 3.1916340032168998e-02 0.0000000000000000e+00  1.3976972856991868e-01 9.6824281033612049e-04 0.0000000000000000e+00  2.2062754501939844e-01 -2.0646633160163394e-02 0.0000000000000000e+00  1.9947454941610276e-01 -5.8655277085068086e-05 0.0000000000000000e+00  3.9283251594523572e-01 1.9968697617284925e-02 0.0000000000000000e+00  2.0468729241727349e-01 1.5349263627790154e-04 0.0000000000000000e+00  2.0133986365542467e-01 1.7774979385316208e-04 0.0000000000000000e+00  3.4739503139363631e-01 1.8617772624245449e-01 0.0000000000000000e+00  2.9723064562044321e-01 4.0573543396272269e-02 0.0000000000000000e+00  2.3262277437938741e-01 7.7538394261429278e-02 0.0000000000000000e+00  2.0535809437776231e-01 2.9197579102620534e-05 0.0000000000000000e+00  1.9943199011183055e-01 -1.3389765843588416e-05 0.0000000000000000e+00  2.0440280828188523e-01 -5.7476522573034995e-06 0.0000000000000000e+00  3.5812816854346929e-01 -1.1855440068106497e-01 0.0000000000000000e+00  1.2111631885582962e-01 2.6855113325205064e-02 0.0000000000000000e+00  1.4511644051468539e-01 7.4700476559488553e-05 0.0000000000000000e+00  2.2000378215433478e-01 2.4520355087399495e-02 0.0000000000000000e+00  1.6147639423387097e-01 6.6291088578666474e-02 0.0000000000000000e+00  2.0350439473871182e-01 1.5707954176144735e-04 0.0000000000000000e+00  1.5441390007971104e-01 1.1351722167293174e-04 0.0000000000000000e+00  1.7731566788362557e-01 -1.5261862784665488e-03 0.0000000000000000e+00  4.6739080888241002e-01 3.1312679283602936e-02 0.0000000000000000e+00  1.9431954459048900e-01 -1.0807584064826542e-02 0.0000000000000000e+00  2.1998942927281240e-01 -1.9863645618004588e-02 0.0000000000000000e+00  2.0103538622505696e-01 6.0720681385069985e-06 0.0000000000000000e+00  1.4093918758425164e-01 -1.2844245732498236e-02 0.0000000000000000e+00  2.0093282449395808e-01 8.9949261231834764e-05 0.0000000000000000e+00  2.0481562529661493e-01 1.3529954517878752e-04 0.0000000000000000e+00  1.9948664569406077e-01 -3.4022008737279082e-04 0.0000000000000000e+00  8.5123971214003905e-02 -1.2931017254449359e-02 0.0000000000000000e+00  1.2577508174809246e-01 5.6700041662721890e-06 0.0000000000000000e+00  1.2652740133687759e-01 8.0823407887325317e-06 0.0000000000000000e+00  1.4981772675945337e-01 -8.1864978988556228e-02 0.0000000000000000e+00  5.9624341517290347e-02 1.5480577927537405e-02 0.0000000000000000e+00  1.9906420667780178e-01 6.3991001227014420e-06 0.0000000000000000e+00  1.3391796704807382e-01 4.9882868640111164e-06 0.0000000000000000e+00  4.2220655837452459e-01 -6.1286722454351968e-02 0.0000000000000000e+00  2.0433734487576843e-01 3.0192425247395475e-05 0.0000000000000000e+00  2.0156009570421859e-01 9.1725733879448856e-07 0.0000000000000000e+00  3.5785329396791819e-02 -6.5488577036506555e-09 0.0000000000000000e+00  1.7097333562456007e-01 -3.7130860440218919e-02 0.0000000000000000e+00  1.5911228927860033e-01 4.0827930721885342e-02 0.0000000000000000e+00  2.0490629557467677e-01 1.3324768310960869e-05 0.0000000000000000e+00  2.0054150671030782e-01 5.4360934582737664e-05 0.0000000000000000e+00  1.0814938401173746e-01 2.6307531447480608e-03 0.0000000000000000e+00  1.9879135490547589e-01 8.5743971331641395e-04 0.0000000000000000e+00  3.8121514598605977e-01 3.5657407592743537e-02 0.0000000000000000e+00  1.4320499173511356e-01 6.8175606619227998e-05 0.0000000000000000e+00  1.2429077606172741e-01 1.6846259391712354e-05 0.0000000000000000e+00  1.3681808321105679e-01 5.7068807250286180e-08 0.0000000000000000e+00  -3.3446610692922725e-03 5.2806414962242844e-02 0.0000000000000000e+00  3.3356383030319481e-01 6.5975374698655949e-08 0.0000000000000000e+00  1.3192908869546871e-01 1.2568698984850027e-04 0.0000000000000000e+00  4.1262541896868421e-01 -4.1557307935687262e-03 0.0000000000000000e+00  1.4103249090781617e-01 3.9758711110998155e-06 0.0000000000000000e+00  2.0212755634116303e-01 -6.2130912869314014e-04 0.0000000000000000e+00  1.1852651894836662e-01 1.4124259203042351e-07 0.0000000000000000e+00  2.0439842218801843e-01 2.2724927209923450e-06 0.0000000000000000e+00  1.3685402388475087e-01 1.1318071812330101e-05 0.0000000000000000e+00  2.1733312886857412e-01 1.4686783191810225e-07 0.0000000000000000e+00  1.3686566853895130e-01 -7.8717925995349842e-08 0.0000000000000000e+00  2.0002493267445828e-01 1.7546592556933228e-04 0.0000000000000000e+00  2.0506540881565755e-01 -1.1763405377858615e-07 0.0000000000000000e+00  1.3335848788440902e-01 1.4152606548156264e-04 0.0000000000000000e+00  1.0782356047234631e-01 1.1614510070523944e-04 0.0000000000000000e+00  1.9603793927754701e-01 1.4522016771963364e-04 0.0000000000000000e+00  1.0379693480959229e-01 -1.8504930710933143e-03 0.0000000000000000e+00  3.0205708353319399e-01 -2.4624818222989533e-02 0.0000000000000000e+00  2.4397790426737320e-01 -2.7025656183787588e-02 0.0000000000000000e+00  4.2624133449132567e-01 -8.6804524913717998e-02 0.0000000000000000e+00  1.2576941519464499e-01 2.9897435854483210e-05 0.0000000000000000e+00  3.1987760572370272e-01 -1.1152797147113655e-01 0.0000000000000000e+00  1.9503478800482554e-01 -2.5965202623155281e-02 0.0000000000000000e+00  1.9667930990802149e-01 1.0039266241634387e-05 0.0000000000000000e+00  2.0338386587839652e-01 -2.6600940446278626e-03 0.0000000000000000e+00  1.0706272881394049e-01 9.5150000960603578e-06 0.0000000000000000e+00  1.0618200779530738e-01 4.2328405069166675e-04 0.0000000000000000e+00  2.0674976152741145e-01 -1.581031690