<?xml version="1.0"?>
<VTKFile type="UnstructuredGrid"  version="0.1"  >
<UnstructuredGrid>
<Piece  NumberOfPoints="1404" NumberOfCells="2604">
<Points>
<DataArray  type="Float64"  NumberOfComponents="3"  format="ascii">0 0.41 0  0 0 0  2.2 0 0  2.2 0.41 0  0.2353553390593274 0.2353553390593274 0  0.25 0.2 0  0.2353553390593274 0.1646446609406726 0  0.2 0.15 0  0.1646446609406726 0.1646446609406726 0  0.15 0.2 0  0.1646446609406726 0.2353553390593274 0  0.2 0.25 0  0.6923879532511287 0.188268343236509 0  0.7 0.15 0  0.6923879532511287 0.1117316567634909 0  0.6707106781186547 0.07928932188134523 0  0.6382683432365089 0.05761204674887133 0  0.6 0.04999999999999999 0  0.5617316567634909 0.05761204674887134 0  0.5292893218813453 0.07928932188134524 0  0.5076120467488713 0.111731656763491 0  0.5 0.15 0  0.5076120467488713 0.188268343236509 0  0.5292893218813453 0.2207106781186547 0  0.561731656763491 0.2423879532511287 0  0.6 0.25 0  0.6382683432365089 0.2423879532511287 0  0.6707106781186547 0.2207106781186547 0  1.1 0 0  0 0.205 0  1.1 0.41 0  0.55 0 0  0.55 0.41 0  0.275 0 0  0.8250000000000001 0 0  0.275 0.41 0  0.8250000000000001 0.41 0  0.6875 0 0  0.61875 0 0  1.65 0.41 0  1.65 0 0  1.375 0 0  1.375 0.41 0  1.925 0 0  1.925 0.41 0  1.5125 0.205 0  1.7875 0.205 0  0.9625000000000001 0.205 0  1.2375 0.205 0  2.2 0.205 0  1.99375 0.2152743902439024 0  0.4125 0.41 0  2.0625 0 0  2.0625 0.41 0  2.2 0.3075 0  1.7875 0.41 0  1.375 0.1486128048780488 0  1.5125 0 0  1.7875 0 0  1.5125 0.41 0  0.9625000000000001 0.41 0  0.4125 0 0  0.1375 0 0  0.1375 0.41 0  0.6875 0.41 0  0.9625000000000001 0 0  1.2375 0 0  1.1 0.1486128048780488 0  1.2375 0.41 0  1.65 0.1486128048780487 0  0.823495464168302 0.2603780552348366 0  0.3738707794507017 0.2720196349488618 0  0.3662291281331582 0.1311456406657909 0  1.676715909090909 0.2793064024390244 0  1.126715909090909 0.2793064024390244 0  1.348284090909091 0.2793064024390244 0  0.8287581077665108 0.1302150898054257 0  1.894702181800738 0.1282910975492754 0  2.092797818199262 0.1282910975492754 0  1.85625 0.3075 0  0 0.3075 0  0 0.1025 0  2.099172119769978 0.25625 0  0.4752414543992246 0.3180372603390748 0  1.99375 0.08395950269330846 0  1.459960956013612 0.3075 0  1.569025960719943 0.2986889805672169 0  1.03125 0.3278689922742084 0  1.959375 0.3126371951219512 0  1.749222215368287 0.1025 0  1.275777784631713 0.1025 0  0.9228016959331474 0.3075 0  1.000777784631713 0.1025 0  2.2 0.1025 0  1.225938124459196 0.3075 0  1.550777784631713 0.1025 0  1.44375 0.07430640243902442 0  1.16875 0.07430640243902439 0  0.7562500000000001 0.3358727844323386 0  0.89375 0 0  1.899250267340833 0.2229966846119207 0  0.61875 0.41 0  1.766482954545455 0.2934032012195123 0  1.046078563095834 0.2389031808701145 0  1.421109702350723 0.2261157654379721 0  0.07567171807980319 0.25625 0  0.2511897295290552 0.3235829392832554 0  0.07655002503762308 0.1488653460959645 0  0.1377245246847496 0.3206030474919778 0  0.6694099692696568 0.3242771941727899 0  0.9168971191497528 0.1295727156104653 0  0.7562500000000001 0 0  2.118919042110979 0.3422084711244843 0  2.13125 0 0  0.06875000000000001 0 0  1.30625 0.41 0  1.597888256393107 0.2173787389261347 0  0.34375 0.41 0  0.2493272016354703 0.08091360081773515 0  0.5588896233436766 0.3264056208677571 0  1.829299675393195 0.07400700849299596 0  0.1334079128307869 0.08523463035786674 0  1.71875 0.41 0  0.06875000000000001 0.41 0  1.16875 0.41 0  2.038220665644273 0.332420740103091 0  0.8810647413215221 0.2027360103977071 0  0.34375 0 0  0.7453891198966415 0.2471459041008237 0  0.42112093004955 0.1988123139090554 0  0.8314023090855964 0.3351170841770613 0  0.89375 0.41 0  0.7906250000000001 0.06615386481594063 0  1.452769549894695 0.1548122580621249 0  1.369219062229598 0.07430640243902442 0  1.30625 0 0  1.07420695807087 0.07430640243902439 0  1.720943423819132 0.1714577452753128 0  1.157188124459196 0.205 0  1.304056576180868 0.1714577452753128 0  1.67579304192913 0.07430640243902437 0  1.209670467133757 0.136210026696477 0  0.4312800784902823 0.08036147352247747 0  0.8723959680194693 0.07066860609690805 0  1.025335513626278 0.1700681449722324 0  0.7945632284247136 0.1940204203251442 0  0.378125 0.3452261501101892 0  0.3307109909790086 0.2037165635083759 0  0.3009701032039409 0.2702970083403109 0  0.20625 0.41 0  1.58125 0 0  0.4812500000000001 0 0  0.9838963872396855 0.2722244191167347 0  0.06772484939107212 0.3260067317374387 0  0.20625 0 0  1.58125 0.41 0  1.631724228912893 0.3381867502687533 0  1.825608881788174 0.14499488549201 0  1.85625 0 0  1.44375 0 0  1.44375 0.41 0  1.85625 0.41 0  2.13125 0.41 0  0.7562500000000001 0.41 0  0.4812500000000001 0.41 0  1.16875 0 0  1.03125 0.41 0  1.03125 0 0  1.71875 0 0  1.99375 0 0  1.99375 0.41 0  0.9408708167433545 0.0651989315768642 0  1.340625 0.3489494290853124 0  1.134375 0.3489494290853123 0  1.700180620188976 0.3438659752031281 0  0.29668452290037 0.1318471691375986 0  0.3175441051360096 0.06496934809856265 0  0.06509151636162461 0.08140814015999148 0  2.135782184673599 0.07126652247502523 0  1.668441847249787 0.2129203728327609 0  1.295782514339747 0.2378437748815763 0  1.409375 0.3520314716057996 0  2.129248544730567 0.1906135162504124 0  2.060771381434487 0.1989445750470348 0  2.013252586573865 0.1496169464686054 0  1.942766402200229 0.1734448904596831 0  1.895522487186454 0.06076163953489683 0  2.069553871656643 0.06605731020975725 0  0.4670911801404742 0.2498408582391372 0  0.7622743084658112 0.1264100838268133 0  1.274680914880868 0.3520219391081363 0  0.3148669572599245 0.3331753056385887 0  1.614713220494657 0.09473434380863296 0  1.72990325744076 0.2380068107952482 0  1.356580098625191 0.2120393231351682 0  2.034370752044885 0.2668681600792073 0  1.51768709249349 0.3426260931494756 0  1.561883724969884 0.1650446847858835 0  1.197344062229598 0.2523725417393646 0  1.804085235518364 0.3468178408964637 0  1.817887819205233 0.2589243285818559 0  1.905897727272727 0.3485060975609756 0  0.7296439733931823 0.06337466644369745 0  0.4250935971865949 0.1394919578475796 0  0.3773030136511669 0.05130372097998036 0  1.192836486056382 0.3562350748565544 0  1.1029124365364 0.226143510831178 0  1.28257088594801 0.2944411014911587 0  0.1905185804731426 0.06029880676029167 0  1.474860187679412 0.2504218616229368 0  1.406767003493824 0.2829282258560709 0  0.5209826960981064 0.2830664557824064 0  0.5131119502780163 0.3617405848213254 0  0.1948220106098172 0.3081993407644811 0  1.845656689180403 0.1998310418452388 0  2.144958525570388 0.2909790873294231 0  2.2 0.15375 0  0.8833025251326762 0.2625402923007629 0  0.171875 0.3653875762360952 0  1.57794966442982 0.3540357145964566 0  0.446875 0.366068291212731 0  0.4272051715206439 0.2891929346190664 0  1.508991196088596 0.1421783375065625 0  1.50436820029908 0.06143401634903343 0  1.223857000523521 0.08235548624535324 0  0.6137904613287555 0.3066826366281556 0  1.153316824384777 0.1289850171317838 0  0.9751573703656133 0.327632618473408 0  2.148922302309752 0.1258841779285271 0  0.9281250000000001 0.3643758685795699 0  1.621993280276081 0.2841214267927899 0  1.550118654119087 0.2461998729100966 0  1.327182649291491 0.1216967252533594 0  0.9939955742738924 0.04663549843168518 0  1.753125 0.04556020050186112 0  1.271875 0.04556020050186116 0  0.9734326767716519 0.1506854560854393 0  0.103125 0.3675775577080512 0  1.94956388244759 0.1180512551534177 0  1.949997712993411 0.04965831614304109 0  0.717433898748555 0.295596016333797 0  1.771961817615021 0.1530278789497521 0  1.909246823951428 0.2812757146784527 0  0 0.35875 0  1.050632804931928 0.1226269704412814 0  0.05695108326502596 0.2024009637347154 0  1.948575539857022 0.2445328248721197 0  1.697271520964565 0.1233917627620729 0  1.065625 0.3689344961371042 0  1.085849084308977 0.3170853572226867 0  0.1015495998772944 0.04226029099983852 0  1.577403511714593 0.05463601888079143 0  1.751571320346033 0.3651102912045228 0  2.2 0.35875 0  0.7441773632462837 0.1786786606458751 0  0 0.05125 0  1.466879772203159 0.3611261772912453 0  0.6282230348858767 0.3577675483994025 0  1.990280163552011 0.3564754268533217 0  1.17471064520912 0.2990917256188288 0  0 0.25625 0  2.2 0.25625 0  2.2 0.05125 0  0 0.15375 0  1.853978576207987 0.35875 0  1.515638456102889 0.2882700110184686 0  2.150453692751374 0.2387066338105111 0  1.323782677156475 0.04897634338873398 0  1.409375 0.03715320121951221 0  1.406484531114799 0.1087852750766809 0  1.134375 0.03715320121951219 0  0.721875 0.3729363922161693 0  0.7941695928236929 0.3696489254637395 0  0.7934827162619036 0.3013409431456604 0  1.627401732573545 0.04552157221025036 0  0.9352049974617431 0.2507047965699472 0  0.8763260682738339 0.3611103317460093 0  2.045405893604797 0.1105340662939892 0  1.255408269734577 0.1577307500159216 0  2.028125 0.03707597992059326 0  1.003030137506755 0.3689344961371042 0  1.248258025468107 0.2565907092181813 0  1.203125 0.03661323374043041 0  0.4800125512335631 0.0549472816999725 0  2.072662025974815 0.2975086504196739 0  0.240625 0.3729825336867542 0  1.113252391110535 0.10238286244357 0  1.071052763974265 0.1885202618768825 0  0.8738809401657862 0.3106483608284829 0  0.6786819423003397 0.2677558482644021 0  1.887722846421017 0.1760882698830035 0  1.472640588990488 0.1118278026240017 0  0.5843750000000001 0.41 0  1.865937103925594 0.2604137786483804 0  1.463913572748262 0.2030442564990043 0  1.376426316059077 0.3186741374914345 0  0.1038643885363755 0.2162701735320032 0  0.1769473813227781 0.1070849728467114 0  0.458787839809176 0.171541653775316 0  0.240625 0 0  0.04179569703428024 0.2877217852556549 0  0.1258346557601885 0.2699740073054968 0  1.722140693354707 0.282908100935778 0  0.41206179117512 0.2448172567039922 0  0.3702471778075604 0.2265217604228704 0  0.3714881805374215 0.1786967818665642 0  1.77397096061971 0.2481483237422926 0  2.105123889160691 0.03743885948498647 0  1.001138337938679 0.229719337663998 0  1.051242910646791 0.2854826559431138 0  1.395420985247586 0.18
[...]
<PointData  Vectors="f_37"> 
<DataArray  type="Float64"  Name="f_37"  NumberOfComponents="3" format="ascii">2.4948385203894481e-07 4.5699131453936626e-08 0.0000000000000000e+00  -4.4468845082991609e-06 -3.5374764452597070e-07 0.0000000000000000e+00  -6.4520416315312624e-07 4.7677380823813608e-09 0.0000000000000000e+00  -7.8783389702192061e-07 1.2139569377330018e-09 0.0000000000000000e+00  -5.7435120747628280e-08 3.0853765753862360e-07 0.0000000000000000e+00  1.1828515927077556e-07 -6.6055678846571092e-08 0.0000000000000000e+00  1.2780084738633731e-07 1.6548984381091982e-07 0.0000000000000000e+00  -9.1012513661710013e-07 -1.0024850001977093e-07 0.0000000000000000e+00  -8.5695550228320479e-07 -1.3204505967380242e-07 0.0000000000000000e+00  1.2867334087883551e-07 -4.5531489093851322e-07 0.0000000000000000e+00  -9.3686838473229022e-07 -5.2499513218501833e-07 0.0000000000000000e+00  -1.0712773927789141e-06 -2.5365674979849046e-07 0.0000000000000000e+00  4.2415694049659252e-07 -9.7805768189800153e-08 0.0000000000000000e+00  -3.4598727759260697e-07 -5.1726028207866928e-07 0.0000000000000000e+00  -3.9688398711085443e-07 -1.1498457143641172e-07 0.0000000000000000e+00  -9.0902025063432728e-07 -1.9485473596219936e-07 0.0000000000000000e+00  2.3834053161439288e-06 4.2913164643982595e-07 0.0000000000000000e+00  3.4751799352215273e-01 9.6684206586697394e-02 0.0000000000000000e+00  1.6904732977412745e-06 -4.0160347971241493e-08 0.0000000000000000e+00  -1.1099283126007956e-06 3.9210513674048506e-07 0.0000000000000000e+00  -1.2794376261843884e-06 -4.3086118634923554e-07 0.0000000000000000e+00  -7.6697525151025551e-08 -6.1321930380976153e-07 0.0000000000000000e+00  4.2466301789821018e-07 3.3797539840175426e-08 0.0000000000000000e+00  -4.7439601991741458e-07 -1.7873184582117727e-06 0.0000000000000000e+00  -3.1163742121807632e-06 -1.5827064021182009e-06 0.0000000000000000e+00  -4.5408139736709310e-06 -4.2329707932892786e-07 0.0000000000000000e+00  -4.4821648470008810e-06 -1.3131204319309323e-07 0.0000000000000000e+00  -3.0471200380142128e-07 7.9884697073942406e-08 0.0000000000000000e+00  -1.9626105950189396e-07 8.1675303326140477e-08 0.0000000000000000e+00  1.6583342965368791e-01 -4.3323668268320451e-07 0.0000000000000000e+00  -9.5139699475253373e-07 -5.9563303445103561e-08 0.0000000000000000e+00  3.0817636110273051e-06 1.1647240710291520e-07 0.0000000000000000e+00  -5.5631682991317524e-07 -8.4423700164565861e-08 0.0000000000000000e+00  4.2086765767704276e-07 4.4671473464650384e-08 0.0000000000000000e+00  -1.8921661072241016e-07 -4.9254991901273186e-08 0.0000000000000000e+00  -1.0262496763273759e-06 3.9861829074646297e-09 0.0000000000000000e+00  -1.4923018880432399e-06 7.1231910384433622e-08 0.0000000000000000e+00  -2.5841954140850868e-06 -4.7582401752712930e-07 0.0000000000000000e+00  -8.7532868878879718e-06 -1.1529126384300430e-06 0.0000000000000000e+00  -1.4331935990092736e-06 -2.1467550067835075e-07 0.0000000000000000e+00  -1.3470852047063563e-06 1.2453191116329657e-08 0.0000000000000000e+00  -1.8978241698963055e-07 -9.1594343706759453e-08 0.0000000000000000e+00  1.1307121937594437e-07 1.1156293681571054e-07 0.0000000000000000e+00  -4.6888307562049614e-07 -5.6237589370408994e-09 0.0000000000000000e+00  -6.6350054719209276e-08 -3.8122171520842704e-09 0.0000000000000000e+00  2.6418755594172394e-01 -2.1390021035454596e-02 0.0000000000000000e+00  2.3244664406394927e-01 1.4176795876133191e-02 0.0000000000000000e+00  1.5256222922204471e-01 -1.2726897212097566e-02 0.0000000000000000e+00  2.7859923591277630e-01 -5.5460089141537598e-02 0.0000000000000000e+00  2.3232444391656865e-01 -3.2150338937741437e-04 0.0000000000000000e+00  2.3197985742647506e-01 -3.8695403745123505e-04 0.0000000000000000e+00  2.7258853696832951e-07 4.3824244762008967e-09 0.0000000000000000e+00  1.2063116322079994e-07 1.8224748536352821e-09 0.0000000000000000e+00  -4.7956067625963371e-07 5.6641140178817897e-09 0.0000000000000000e+00  1.8493897584049304e-01 -1.9497755337451186e-04 0.0000000000000000e+00  -1.2112405815339502e-06 -9.8873364061238813e-08 0.0000000000000000e+00  2.3472369173973959e-01 -7.2706641629288998e-02 0.0000000000000000e+00  -2.8022216645443905e-06 4.3250144433890597e-07 0.0000000000000000e+00  -6.8038050140982331e-07 -7.8963590931666745e-08 0.0000000000000000e+00  9.7505805250830730e-07 2.6353076535413410e-07 0.0000000000000000e+00  -2.6540011416022753e-07 -1.0708689368567329e-08 0.0000000000000000e+00  -3.4903134854204964e-07 -8.7818616189754713e-08 0.0000000000000000e+00  -8.5370616017368440e-07 -6.9381233500087910e-08 0.0000000000000000e+00  -3.7954531013985797e-07 -6.0697415371470350e-08 0.0000000000000000e+00  -2.3923973535200831e-06 5.3176779742849873e-08 0.0000000000000000e+00  -4.3658678394482290e-07 6.7127394889781750e-08 0.0000000000000000e+00  1.8981019679751640e-06 -4.4031858183203099e-07 0.0000000000000000e+00  1.2105209896640219e-01 1.9643170436536963e-03 0.0000000000000000e+00  -2.9806229089075288e-07 -6.9365891778908048e-08 0.0000000000000000e+00  2.4214348321074378e-01 1.8963624842347628e-02 0.0000000000000000e+00  2.6533772605244482e-01 -3.8219247619672429e-02 0.0000000000000000e+00  1.0606881688328505e-01 5.0218023117966646e-03 0.0000000000000000e+00  3.0490385122054836e-01 1.0646218527219270e-01 0.0000000000000000e+00  1.8691108845599430e-01 2.4420771888027864e-02 0.0000000000000000e+00  3.4763325039430348e-01 -4.1517691229981862e-02 0.0000000000000000e+00  2.5437928036714025e-01 -5.2931302291484163e-02 0.0000000000000000e+00  6.6705960880604001e-02 4.4601139335344937e-02 0.0000000000000000e+00  2.0711484619515744e-01 1.6920306159588934e-03 0.0000000000000000e+00  2.0659846130549142e-01 -5.0119576339875617e-04 0.0000000000000000e+00  1.8397666893249984e-01 2.5532619878802427e-03 0.0000000000000000e+00  7.5234905931130969e-02 4.2909366362741636e-08 0.0000000000000000e+00  2.7319253981513425e-01 1.8896721217203233e-08 0.0000000000000000e+00  2.2199606109082601e-01 -5.6443824029277071e-04 0.0000000000000000e+00  2.4042156412452587e-01 7.2476986323922465e-02 0.0000000000000000e+00  1.6167245116737169e-01 -3.0745584949052988e-04 0.0000000000000000e+00  1.4587776151529405e-01 -1.3178746602587804e-02 0.0000000000000000e+00  1.4959145269401572e-01 1.4939832817067551e-02 0.0000000000000000e+00  3.2309834829058387e-01 -2.4064183921559658e-02 0.0000000000000000e+00  1.8021795738924071e-01 -1.8053114522450809e-04 0.0000000000000000e+00  1.9464031332023041e-01 9.9421434859592889e-03 0.0000000000000000e+00  9.7158907209082754e-02 -2.5587513355454856e-02 0.0000000000000000e+00  3.9123003841874443e-01 -3.7535682866579330e-02 0.0000000000000000e+00  5.9798824442626720e-02 9.4006415551423812e-03 0.0000000000000000e+00  1.8430828687705986e-01 -1.8652176395055539e-04 0.0000000000000000e+00  2.7898361426255641e-01 -3.9737368716089162e-02 0.0000000000000000e+00  2.1457942305123562e-01 -1.0456926368668072e-02 0.0000000000000000e+00  1.3646286425058982e-01 -3.2123629970115239e-02 0.0000000000000000e+00  2.4859599656878745e-02 6.8067753675210129e-03 0.0000000000000000e+00  4.2720833818014659e-01 -3.5839866200909065e-02 0.0000000000000000e+00  -3.2226971755782198e-07 -1.7360134433293706e-08 0.0000000000000000e+00  2.3084314376573334e-01 2.3646646434216873e-03 0.0000000000000000e+00  -9.6573585237572916e-07 6.2702711964014852e-09 0.0000000000000000e+00  1.8956262594068440e-01 1.1380562081315378e-02 0.0000000000000000e+00  2.7763615824793991e-01 -3.2083247040421072e-02 0.0000000000000000e+00  2.8069635302865514e-01 -6.1610796037943408e-02 0.0000000000000000e+00  1.2570207179468440e-01 7.1224793934692748e-02 0.0000000000000000e+00  2.3112938113288511e-01 1.4774767743721462e-02 0.0000000000000000e+00  2.0877622252016848e-01 2.4426424175266394e-02 0.0000000000000000e+00  1.4759387380196529e-01 7.3990344967286639e-02 0.0000000000000000e+00  4.5677231784057976e-01 -1.3269788684078881e-02 0.0000000000000000e+00  7.5171292072837056e-02 1.8792760322074140e-02 0.0000000000000000e+00  -2.0766752965654489e-07 -1.1128392880828247e-07 0.0000000000000000e+00  1.4024289554952066e-01 -2.1456097652719483e-04 0.0000000000000000e+00  -1.6043841991277173e-06 4.5288856956726124e-09 0.0000000000000000e+00  -1.2968703050207582e-06 8.6214587085377039e-09 0.0000000000000000e+00  -2.4187338187209529e-07 -6.6065486088690165e-08 0.0000000000000000e+00  2.3811535446183793e-01 1.9444286226728343e-02 0.0000000000000000e+00  -1.8912390656998925e-06 -1.3771433995502611e-08 0.0000000000000000e+00  4.0380006745127778e-01 4.2372563024099558e-02 0.0000000000000000e+00  3.7426992652304103e-01 7.7590978602332175e-02 0.0000000000000000e+00  1.5029609898596291e-01 2.4070843585075248e-03 0.0000000000000000e+00  3.4356947282570532e-01 1.3155545454432836e-02 0.0000000000000000e+00  -1.6765875357536255e-06 -1.9398181692103919e-07 0.0000000000000000e+00  -8.5752206658047580e-08 -1.0896537996897191e-08 0.0000000000000000e+00  -6.2239708633247026e-07 -5.9472606664333962e-08 0.0000000000000000e+00  1.5514030868496947e-01 -3.5548365692656027e-04 0.0000000000000000e+00  9.8990508048260609e-02 -2.9858668597050352e-03 0.0000000000000000e+00  -2.8574640508792886e-07 -9.7058504358298414e-08 0.0000000000000000e+00  1.4588011814830620e-01 -2.3970663335935755e-02 0.0000000000000000e+00  1.5539217616526382e-01 1.4940086711155151e-01 0.0000000000000000e+00  3.9654790423703956e-01 -3.4753617941023579e-02 0.0000000000000000e+00  1.9212965679698579e-06 -7.7423517143560213e-08 0.0000000000000000e+00  1.1656839972691675e-01 4.6976484065532446e-02 0.0000000000000000e+00  2.6081214372480999e-01 -5.9141276930909377e-02 0.0000000000000000e+00  9.0833142860826735e-02 -3.3881706987229268e-02 0.0000000000000000e+00  1.7409948459355695e-06 -4.7747255017456707e-07 0.0000000000000000e+00  3.1877564305906117e-02 9.3744740048760048e-03 0.0000000000000000e+00  2.3696352586176436e-01 2.1525534671700181e-02 0.0000000000000000e+00  2.4479021360183170e-01 -3.1695566393110552e-02 0.0000000000000000e+00  2.4767425682584790e-01 -6.6382066562313310e-02 0.0000000000000000e+00  1.6949290643376849e-01 8.4235002706855803e-03 0.0000000000000000e+00  1.3909380954120384e-01 -1.5417467322651958e-02 0.0000000000000000e+00  2.3884376760260434e-01 2.5118263899181783e-02 0.0000000000000000e+00  6.7501080253012172e-02 1.7239056462596089e-02 0.0000000000000000e+00  1.2367855196735185e-01 -1.6386588265180184e-03 0.0000000000000000e+00  2.3168027428210516e-02 1.0228214799290645e-02 0.0000000000000000e+00  2.1175185939861993e-01 7.7330114464560055e-03 0.0000000000000000e+00  3.5766778196580001e-02 1.5498758556303201e-02 0.0000000000000000e+00  1.0148264465683970e-01 -2.0243809578659483e-02 0.0000000000000000e+00  -9.3585762339808592e-07 -1.1210549610548944e-07 0.0000000000000000e+00  -1.1269926463896724e-06 2.0575596423609718e-07 0.0000000000000000e+00  -6.1530979829411634e-07 3.8478330455784457e-07 0.0000000000000000e+00  3.4620867748446155e-01 -3.7984067954004282e-02 0.0000000000000000e+00  7.8052233971448892e-02 3.1255358075236064e-02 0.0000000000000000e+00  -2.2466770172177251e-06 -1.0618315037543012e-07 0.0000000000000000e+00  -1.4090261704036532e-07 -1.4643087991872938e-08 0.0000000000000000e+00  1.1179200527407965e-01 1.2552108069821493e-02 0.0000000000000000e+00  2.2010118921494573e-01 6.9818216320742549e-03 0.0000000000000000e+00  -5.6204576538336306e-07 -3.4244480890099814e-08 0.0000000000000000e+00  -2.5637982175193584e-06 3.9663978638509845e-07 0.0000000000000000e+00  5.0679006033846865e-07 3.1984618625211372e-07 0.0000000000000000e+00  -3.0826449047405074e-07 -2.6280467139114661e-08 0.0000000000000000e+00  -5.4904378286763753e-08 3.4818878874113757e-09 0.0000000000000000e+00  3.6422984035061439e-07 -3.4403263289488652e-08 0.0000000000000000e+00  -2.2358570589966236e-06 -2.6106449395676175e-07 0.0000000000000000e+00  8.0294058866714001e-07 -1.0345301825514598e-07 0.0000000000000000e+00  6.0938887837369374e-08 -1.5554602379836607e-08 0.0000000000000000e+00  -2.8832944332280418e-07 1.5242242716503407e-07 0.0000000000000000e+00  5.5205062302873380e-07 -7.5435172050700536e-08 0.0000000000000000e+00  -8.9402546470910091e-07 2.9451708803226553e-09 0.0000000000000000e+00  -2.4151713193816652e-07 2.9089969363007778e-09 0.0000000000000000e+00  4.4465967210193080e-02 5.8837061965993122e-03 0.0000000000000000e+00  1.1366256442752198e-01 -1.2462191473512661e-02 0.0000000000000000e+00  2.1312594293039699e-01 -1.5175884537123492e-02 0.0000000000000000e+00  1.2044543581697549e-01 8.7798037015168352e-03 0.0000000000000000e+00  2.9148191482426378e-01 7.5761084095157694e-02 0.0000000000000000e+00  3.3738327912161636e-01 5.3516581055963464e-02 0.0000000000000000e+00  3.1540563967298368e-01 2.6286865380882270e-02 0.0000000000000000e+00  1.4447778070688436e-01 -1.9491407070375429e-04 0.0000000000000000e+00  2.3371376965294632e-01 2.8277834155726274e-02 0.0000000000000000e+00  3.1749500244999967e-01 -7.4526580085128163e-02 0.0000000000000000e+00  8.4297780010172324e-02 -8.5784200444709805e-03 0.0000000000000000e+00  2.3143350566584639e-01 -5.2574222948004580e-04 0.0000000000000000e+00  2.3211775099605167e-01 -6.7063516210411273e-04 0.0000000000000000e+00  2.1918131392378309e-01 -5.3466356412914899e-04 0.0000000000000000e+00  2.2818768627959762e-01 5.2652844510234697e-04 0.0000000000000000e+00  1.2734116462492823e-01 4.1816909222230344e-04 0.0000000000000000e+00  1.3614981078167535e-01 -2.5272792945687736e-04 0.0000000000000000e+00  1.9877450565964078e-01 1.9058011958388379e-01 0.0000000000000000e+00  3.9039245799102291e-02 4.4898431625590304e-02 0.0000000000000000e+00  1.3632427192489893e-01 -1.3141552997083748e-02 0.0000000000000000e+00  2.1971345322973856e-01 -4.8901237715313212e-03 0.0000000000000000e+00  2.0602050990561160e-01 6.8825413909705552e-03 0.0000000000000000e+00  2.2140095068038437e-01 2.2593375450671596e-02 0.0000000000000000e+00  3.0229840760391929e-01 -8.1319615599015585e-02 0.0000000000000000e+00  2.1703676482821260e-01 -5.9814795667654792e-04 0.0000000000000000e+00  8.5243660004118704e-02 2.4678107078707052e-03 0.0000000000000000e+00  2.6021129475539184e-01 -3.7682486340531603e-03 0.0000000000000000e+00  3.3044032508616566e-01 -5.4001895987387104e-02 0.0000000000000000e+00  1.3010578122320637e-01 2.7791363585322622e-03 0.0000000000000000e+00  2.1725190958349522e-01 8.3255383954442611e-03 0.0000000000000000e+00  1.3081461446874157e-01 2.5180593757210417e-04 0.0000000000000000e+00  1.6271952998423345e-01 7.6150064558613381e-02 0.0000000000000000e+00  2.4656170920798376e-01 1.3042490245776450e-01 0.0000000000000000e+00  2.1994399709507656e-01 3.1091239444185299e-02 0.0000000000000000e+00  1.6248032619882480e-01 -1.2377870050534081e-02 0.0000000000000000e+00  2.6657987893935792e-01 -3.1771129211601988e-02 0.0000000000000000e+00  2.7036778715377674e-01 -4.8512387809229160e-02 0.0000000000000000e+00  3.9247657679555048e-01 1.7992510803020514e-02 0.0000000000000000e+00  2.3219660538831222e-01 -2.6948586904747121e-02 0.0000000000000000e+00  2.1185539623303098e-01 -3.7846786345700115e-02 0.0000000000000000e+00  3.4062343704271547e-01 1.8378661585961212e-01 0.0000000000000000e+00  2.7758554502621602e-01 3.6397519778594047e-02 0.0000000000000000e+00  2.3158584223392903e-01 7.2347051097453513e-02 0.0000000000000000e+00  2.3233903892963270e-01 6.6913524268771710e-03 0.0000000000000000e+00  2.0044188661144241e-01 -3.5630895167618442e-04 0.0000000000000000e+00  2.2145013889633669e-01 -2.8099619184291822e-04 0.0000000000000000e+00  2.9897540088178870e-01 -3.8651547279330886e-02 0.0000000000000000e+00  1.2564145557129275e-01 2.5511825965368655e-02 0.0000000000000000e+00  7.7266012322207908e-02 7.0776191225306977e-03 0.0000000000000000e+00  2.1005251741101855e-01 2.1554046759109578e-02 0.0000000000000000e+00  1.5816323596505286e-01 4.9292921466845413e-02 0.0000000000000000e+00  2.5233328097063507e-01 -3.1859159083033384e-02 0.0000000000000000e+00  1.4393632366864506e-01 -1.4288136700729060e-02 0.0000000000000000e+00  4.2515564009386289e-02 -3.6453356843684655e-03 0.0000000000000000e+00  4.6288726523609225e-01 4.3112111926600458e-02 0.0000000000000000e+00  1.0713067646439293e-01 1.3519554735946569e-03 0.0000000000000000e+00  3.4741620417331875e-01 -2.6561367061131828e-02 0.0000000000000000e+00  2.0501806865688738e-01 -3.5086464730985263e-04 0.0000000000000000e+00  2.3803859231384961e-01 -1.1966719224636331e-02 0.0000000000000000e+00  1.7330145451230194e-01 2.4105243770969970e-02 0.0000000000000000e+00  2.1774102667425355e-01 6.8169206142801924e-03 0.0000000000000000e+00  1.6130650269497582e-01 -5.1604550637466683e-02 0.0000000000000000e+00  2.5750258376258703e-02 2.8508193183896043e-03 0.0000000000000000e+00  1.0695002012894868e-01 2.6521834778370779e-03 0.0000000000000000e+00  1.8538715052316952e-03 -4.9235403649216551e-03 0.0000000000000000e+00  8.9621678241232211e-02 7.6209153455544373e-03 0.0000000000000000e+00  6.2802201427227672e-02 1.7635491896338951e-02 0.0000000000000000e+00  1.9836328663560870e-01 7.0173148888763684e-05 0.0000000000000000e+00  1.0766766535704991e-01 -6.6289143438855833e-05 0.0000000000000000e+00  4.0241424041251944e-01 -3.9885236617944360e-02 0.0000000000000000e+00  2.2763657895638803e-01 1.3613760255203887e-02 0.0000000000000000e+00  2.0770324858105438e-01 1.0501966556156145e-03 0.0000000000000000e+00  3.5785432633066210e-02 8.0903355605338221e-08 0.0000000000000000e+00  7.8246841244757614e-02 9.3348864171316093e-03 0.0000000000000000e+00  1.5902798320989334e-01 4.2059998154503946e-02 0.0000000000000000e+00  2.2630182301574073e-01 3.0180565237179270e-04 0.0000000000000000e+00  2.2146404574381542e-01 1.6460138682298727e-02 0.0000000000000000e+00  1.6560226805145961e-01 -7.0357403883957855e-03 0.0000000000000000e+00  3.2509014417331017e-01 -2.8342699352024162e-02 0.0000000000000000e+00  3.8094453455546484e-01 3.5631260453076997e-02 0.0000000000000000e+00  1.4474675729900557e-01 -1.5439924078955612e-04 0.0000000000000000e+00  9.4105189701920264e-02 3.0444383511118037e-03 0.0000000000000000e+00  1.1212889167102480e-01 -8.1826207615092272e-05 0.0000000000000000e+00  -8.0357326001135286e-03 1.5321313206735373e-02 0.0000000000000000e+00  3.3356378358958283e-01 3.3091985998780529e-08 0.0000000000000000e+00  6.0021351124041847e-02 -2.8378999614741400e-03 0.0000000000000000e+00  3.9187842647637272e-01 3.5474389500878461e-03 0.0000000000000000e+00  1.1714740762328901e-01 -1.9764304324353679e-04 0.0000000000000000e+00  3.2010528199498778e-01 -4.0482120922073511e-02 0.0000000000000000e+00  1.1852650655308614e-01 -3.1161905992526213e-08 0.0000000000000000e+00  2.2182460189711739e-01 -2.7941651884329764e-04 0.0000000000000000e+00  1.1154987321638783e-01 -6.4882105095175895e-05 0.0000000000000000e+00  2.1733315240017190e-01 -2.7679775083441862e-08 0.0000000000000000e+00  1.1230943560350660e-01 8.2724224489861219e-04 0.0000000000000000e+00  1.6537698556720390e-01 3.1822454223779481e-05 0.0000000000000000e+00  2.2798310441748848e-01 -4.3881319925706276e-04 0.0000000000000000e+00  2.4525518034819546e-02 -1.3570862070887323e-02 0.0000000000000000e+00  5.4052964997759481e-02 -1.2441334267925061e-02 0.0000000000000000e+00  1.7640842260628595e-01 -5.5166933876129406e-02 0.0000000000000000e+00  -2.5120811399500321e-04 4.3320856460385884e-03 0.0000000000000000e+00  3.1330706694842292e-01 -1.6451641026783426e-02 0.0000000000000000e+00  2.8643275798438339e-01 -1.7182144446063322e-02 0.0000000000000000e+00  4.0926811303336963e-01 -4.6009960428843699e-02 0.0000000000000000e+00  1.2303143516273524e-01 3.1319972763180271e-03 0.0000000000000000e+00  2.7503421476901918e-01 -3.3973085801703162e-02 0.0000000000000000e+00  2.8026291677749793e-01 -1.6784328596457732e-02 0.0000000000000000e+00  1.9174660998803045e-01 -4.9185148334041919e-04 0.0000000000000000e+00  2.0087166683239702e-01 -4.1906138288696319e-02 0.0000000000000000e+00  8.3832226476798499e-02 -1.1582286277373679e-04 0.0000000000000000e+00  1.8674629367360995e-01 -7.6693009569839240e-03 0.0000000000000000e+00  3