<?xml version="1.0"?>
<VTKFile type="UnstructuredGrid"  version="0.1"  >
<UnstructuredGrid>
<Piece  NumberOfPoints="1404" NumberOfCells="2604">
<Points>
<DataArray  type="Float64"  NumberOfComponents="3"  format="ascii">0 0.41 0  0 0 0  2.2 0 0  2.2 0.41 0  0.2353553390593274 0.2353553390593274 0  0.25 0.2 0  0.2353553390593274 0.1646446609406726 0  0.2 0.15 0  0.1646446609406726 0.1646446609406726 0  0.15 0.2 0  0.1646446609406726 0.2353553390593274 0  0.2 0.25 0  0.6923879532511287 0.188268343236509 0  0.7 0.15 0  0.6923879532511287 0.1117316567634909 0  0.6707106781186547 0.07928932188134523 0  0.6382683432365089 0.05761204674887133 0  0.6 0.04999999999999999 0  0.5617316567634909 0.05761204674887134 0  0.5292893218813453 0.07928932188134524 0  0.5076120467488713 0.111731656763491 0  0.5 0.15 0  0.5076120467488713 0.188268343236509 0  0.5292893218813453 0.2207106781186547 0  0.561731656763491 0.2423879532511287 0  0.6 0.25 0  0.6382683432365089 0.2423879532511287 0  0.6707106781186547 0.2207106781186547 0  1.1 0 0  0 0.205 0  1.1 0.41 0  0.55 0 0  0.55 0.41 0  0.275 0 0  0.8250000000000001 0 0  0.275 0.41 0  0.8250000000000001 0.41 0  0.6875 0 0  0.61875 0 0  1.65 0.41 0  1.65 0 0  1.375 0 0  1.375 0.41 0  1.925 0 0  1.925 0.41 0  1.5125 0.205 0  1.7875 0.205 0  0.9625000000000001 0.205 0  1.2375 0.205 0  2.2 0.205 0  1.99375 0.2152743902439024 0  0.4125 0.41 0  2.0625 0 0  2.0625 0.41 0  2.2 0.3075 0  1.7875 0.41 0  1.375 0.1486128048780488 0  1.5125 0 0  1.7875 0 0  1.5125 0.41 0  0.9625000000000001 0.41 0  0.4125 0 0  0.1375 0 0  0.1375 0.41 0  0.6875 0.41 0  0.9625000000000001 0 0  1.2375 0 0  1.1 0.1486128048780488 0  1.2375 0.41 0  1.65 0.1486128048780487 0  0.823495464168302 0.2603780552348366 0  0.3738707794507017 0.2720196349488618 0  0.3662291281331582 0.1311456406657909 0  1.676715909090909 0.2793064024390244 0  1.126715909090909 0.2793064024390244 0  1.348284090909091 0.2793064024390244 0  0.8287581077665108 0.1302150898054257 0  1.894702181800738 0.1282910975492754 0  2.092797818199262 0.1282910975492754 0  1.85625 0.3075 0  0 0.3075 0  0 0.1025 0  2.099172119769978 0.25625 0  0.4752414543992246 0.3180372603390748 0  1.99375 0.08395950269330846 0  1.459960956013612 0.3075 0  1.569025960719943 0.2986889805672169 0  1.03125 0.3278689922742084 0  1.959375 0.3126371951219512 0  1.749222215368287 0.1025 0  1.275777784631713 0.1025 0  0.9228016959331474 0.3075 0  1.000777784631713 0.1025 0  2.2 0.1025 0  1.225938124459196 0.3075 0  1.550777784631713 0.1025 0  1.44375 0.07430640243902442 0  1.16875 0.07430640243902439 0  0.7562500000000001 0.3358727844323386 0  0.89375 0 0  1.899250267340833 0.2229966846119207 0  0.61875 0.41 0  1.766482954545455 0.2934032012195123 0  1.046078563095834 0.2389031808701145 0  1.421109702350723 0.2261157654379721 0  0.07567171807980319 0.25625 0  0.2511897295290552 0.3235829392832554 0  0.07655002503762308 0.1488653460959645 0  0.1377245246847496 0.3206030474919778 0  0.6694099692696568 0.3242771941727899 0  0.9168971191497528 0.1295727156104653 0  0.7562500000000001 0 0  2.118919042110979 0.3422084711244843 0  2.13125 0 0  0.06875000000000001 0 0  1.30625 0.41 0  1.597888256393107 0.2173787389261347 0  0.34375 0.41 0  0.2493272016354703 0.08091360081773515 0  0.5588896233436766 0.3264056208677571 0  1.829299675393195 0.07400700849299596 0  0.1334079128307869 0.08523463035786674 0  1.71875 0.41 0  0.06875000000000001 0.41 0  1.16875 0.41 0  2.038220665644273 0.332420740103091 0  0.8810647413215221 0.2027360103977071 0  0.34375 0 0  0.7453891198966415 0.2471459041008237 0  0.42112093004955 0.1988123139090554 0  0.8314023090855964 0.3351170841770613 0  0.89375 0.41 0  0.7906250000000001 0.06615386481594063 0  1.452769549894695 0.1548122580621249 0  1.369219062229598 0.07430640243902442 0  1.30625 0 0  1.07420695807087 0.07430640243902439 0  1.720943423819132 0.1714577452753128 0  1.157188124459196 0.205 0  1.304056576180868 0.1714577452753128 0  1.67579304192913 0.07430640243902437 0  1.209670467133757 0.136210026696477 0  0.4312800784902823 0.08036147352247747 0  0.8723959680194693 0.07066860609690805 0  1.025335513626278 0.1700681449722324 0  0.7945632284247136 0.1940204203251442 0  0.378125 0.3452261501101892 0  0.3307109909790086 0.2037165635083759 0  0.3009701032039409 0.2702970083403109 0  0.20625 0.41 0  1.58125 0 0  0.4812500000000001 0 0  0.9838963872396855 0.2722244191167347 0  0.06772484939107212 0.3260067317374387 0  0.20625 0 0  1.58125 0.41 0  1.631724228912893 0.3381867502687533 0  1.825608881788174 0.14499488549201 0  1.85625 0 0  1.44375 0 0  1.44375 0.41 0  1.85625 0.41 0  2.13125 0.41 0  0.7562500000000001 0.41 0  0.4812500000000001 0.41 0  1.16875 0 0  1.03125 0.41 0  1.03125 0 0  1.71875 0 0  1.99375 0 0  1.99375 0.41 0  0.9408708167433545 0.0651989315768642 0  1.340625 0.3489494290853124 0  1.134375 0.3489494290853123 0  1.700180620188976 0.3438659752031281 0  0.29668452290037 0.1318471691375986 0  0.3175441051360096 0.06496934809856265 0  0.06509151636162461 0.08140814015999148 0  2.135782184673599 0.07126652247502523 0  1.668441847249787 0.2129203728327609 0  1.295782514339747 0.2378437748815763 0  1.409375 0.3520314716057996 0  2.129248544730567 0.1906135162504124 0  2.060771381434487 0.1989445750470348 0  2.013252586573865 0.1496169464686054 0  1.942766402200229 0.1734448904596831 0  1.895522487186454 0.06076163953489683 0  2.069553871656643 0.06605731020975725 0  0.4670911801404742 0.2498408582391372 0  0.7622743084658112 0.1264100838268133 0  1.274680914880868 0.3520219391081363 0  0.3148669572599245 0.3331753056385887 0  1.614713220494657 0.09473434380863296 0  1.72990325744076 0.2380068107952482 0  1.356580098625191 0.2120393231351682 0  2.034370752044885 0.2668681600792073 0  1.51768709249349 0.3426260931494756 0  1.561883724969884 0.1650446847858835 0  1.197344062229598 0.2523725417393646 0  1.804085235518364 0.3468178408964637 0  1.817887819205233 0.2589243285818559 0  1.905897727272727 0.3485060975609756 0  0.7296439733931823 0.06337466644369745 0  0.4250935971865949 0.1394919578475796 0  0.3773030136511669 0.05130372097998036 0  1.192836486056382 0.3562350748565544 0  1.1029124365364 0.226143510831178 0  1.28257088594801 0.2944411014911587 0  0.1905185804731426 0.06029880676029167 0  1.474860187679412 0.2504218616229368 0  1.406767003493824 0.2829282258560709 0  0.5209826960981064 0.2830664557824064 0  0.5131119502780163 0.3617405848213254 0  0.1948220106098172 0.3081993407644811 0  1.845656689180403 0.1998310418452388 0  2.144958525570388 0.2909790873294231 0  2.2 0.15375 0  0.8833025251326762 0.2625402923007629 0  0.171875 0.3653875762360952 0  1.57794966442982 0.3540357145964566 0  0.446875 0.366068291212731 0  0.4272051715206439 0.2891929346190664 0  1.508991196088596 0.1421783375065625 0  1.50436820029908 0.06143401634903343 0  1.223857000523521 0.08235548624535324 0  0.6137904613287555 0.3066826366281556 0  1.153316824384777 0.1289850171317838 0  0.9751573703656133 0.327632618473408 0  2.148922302309752 0.1258841779285271 0  0.9281250000000001 0.3643758685795699 0  1.621993280276081 0.2841214267927899 0  1.550118654119087 0.2461998729100966 0  1.327182649291491 0.1216967252533594 0  0.9939955742738924 0.04663549843168518 0  1.753125 0.04556020050186112 0  1.271875 0.04556020050186116 0  0.9734326767716519 0.1506854560854393 0  0.103125 0.3675775577080512 0  1.94956388244759 0.1180512551534177 0  1.949997712993411 0.04965831614304109 0  0.717433898748555 0.295596016333797 0  1.771961817615021 0.1530278789497521 0  1.909246823951428 0.2812757146784527 0  0 0.35875 0  1.050632804931928 0.1226269704412814 0  0.05695108326502596 0.2024009637347154 0  1.948575539857022 0.2445328248721197 0  1.697271520964565 0.1233917627620729 0  1.065625 0.3689344961371042 0  1.085849084308977 0.3170853572226867 0  0.1015495998772944 0.04226029099983852 0  1.577403511714593 0.05463601888079143 0  1.751571320346033 0.3651102912045228 0  2.2 0.35875 0  0.7441773632462837 0.1786786606458751 0  0 0.05125 0  1.466879772203159 0.3611261772912453 0  0.6282230348858767 0.3577675483994025 0  1.990280163552011 0.3564754268533217 0  1.17471064520912 0.2990917256188288 0  0 0.25625 0  2.2 0.25625 0  2.2 0.05125 0  0 0.15375 0  1.853978576207987 0.35875 0  1.515638456102889 0.2882700110184686 0  2.150453692751374 0.2387066338105111 0  1.323782677156475 0.04897634338873398 0  1.409375 0.03715320121951221 0  1.406484531114799 0.1087852750766809 0  1.134375 0.03715320121951219 0  0.721875 0.3729363922161693 0  0.7941695928236929 0.3696489254637395 0  0.7934827162619036 0.3013409431456604 0  1.627401732573545 0.04552157221025036 0  0.9352049974617431 0.2507047965699472 0  0.8763260682738339 0.3611103317460093 0  2.045405893604797 0.1105340662939892 0  1.255408269734577 0.1577307500159216 0  2.028125 0.03707597992059326 0  1.003030137506755 0.3689344961371042 0  1.248258025468107 0.2565907092181813 0  1.203125 0.03661323374043041 0  0.4800125512335631 0.0549472816999725 0  2.072662025974815 0.2975086504196739 0  0.240625 0.3729825336867542 0  1.113252391110535 0.10238286244357 0  1.071052763974265 0.1885202618768825 0  0.8738809401657862 0.3106483608284829 0  0.6786819423003397 0.2677558482644021 0  1.887722846421017 0.1760882698830035 0  1.472640588990488 0.1118278026240017 0  0.5843750000000001 0.41 0  1.865937103925594 0.2604137786483804 0  1.463913572748262 0.2030442564990043 0  1.376426316059077 0.3186741374914345 0  0.1038643885363755 0.2162701735320032 0  0.1769473813227781 0.1070849728467114 0  0.458787839809176 0.171541653775316 0  0.240625 0 0  0.04179569703428024 0.2877217852556549 0  0.1258346557601885 0.2699740073054968 0  1.722140693354707 0.282908100935778 0  0.41206179117512 0.2448172567039922 0  0.3702471778075604 0.2265217604228704 0  0.3714881805374215 0.1786967818665642 0  1.77397096061971 0.2481483237422926 0  2.105123889160691 0.03743885948498647 0  1.001138337938679 0.229719337663998 0  1.051242910646791 0.2854826559431138 0  1.395420985247586 0.18
[...]
<PointData  Vectors="f_37"> 
<DataArray  type="Float64"  Name="f_37"  NumberOfComponents="3" format="ascii">2.4942385616538898e-07 4.5501248290082213e-08 0.0000000000000000e+00  -4.4498961563908290e-06 -3.5342245207900054e-07 0.0000000000000000e+00  -6.4326409641636703e-07 3.2430974322562563e-09 0.0000000000000000e+00  -8.0205177729896271e-07 8.1173169810625144e-10 0.0000000000000000e+00  -6.0694988806552619e-08 3.1636109770254677e-07 0.0000000000000000e+00  1.1466516213801307e-07 -5.3117401756242123e-08 0.0000000000000000e+00  1.2748675284732976e-07 1.7043000754098154e-07 0.0000000000000000e+00  -9.1189066820991629e-07 -1.0106928388145147e-07 0.0000000000000000e+00  -8.6288227331725873e-07 -1.2795080490471505e-07 0.0000000000000000e+00  1.3023209715125876e-07 -4.4836027157957727e-07 0.0000000000000000e+00  -9.3212379985371686e-07 -5.2284682117421563e-07 0.0000000000000000e+00  -1.0676740797264284e-06 -2.5393803508856600e-07 0.0000000000000000e+00  4.2413073265136334e-07 -9.1732742812198170e-08 0.0000000000000000e+00  -3.3348189175574871e-07 -4.8040519155164670e-07 0.0000000000000000e+00  -3.8143562567298336e-07 -8.6088537364674589e-08 0.0000000000000000e+00  -8.8457198428179789e-07 -1.9457390136205043e-07 0.0000000000000000e+00  2.3980864907774567e-06 4.1758908362981238e-07 0.0000000000000000e+00  3.4755194474293793e-01 9.6693575315783251e-02 0.0000000000000000e+00  1.6641385969036867e-06 -6.5851407909949740e-08 0.0000000000000000e+00  -1.1545207944846197e-06 3.8321020337445240e-07 0.0000000000000000e+00  -1.2930567290221796e-06 -4.1294384867667268e-07 0.0000000000000000e+00  -6.2444727296152487e-08 -5.7024505037478720e-07 0.0000000000000000e+00  4.7199332651716351e-07 6.4830312764592857e-08 0.0000000000000000e+00  -4.3387516348741356e-07 -1.8083557440993651e-06 0.0000000000000000e+00  -3.1183181265153113e-06 -1.6122231317682497e-06 0.0000000000000000e+00  -4.5627125886721197e-06 -4.2942154485413223e-07 0.0000000000000000e+00  -4.4970854096281194e-06 -1.1965680064919764e-07 0.0000000000000000e+00  -3.0247415774797062e-07 7.7466844451641718e-08 0.0000000000000000e+00  1.2293768769176020e-07 1.3854658454567804e-08 0.0000000000000000e+00  1.6583342798836706e-01 -4.3126708704095901e-07 0.0000000000000000e+00  -1.0094971527657488e-06 -7.7723431228905455e-08 0.0000000000000000e+00  3.0665762674739090e-06 9.4110203750409261e-08 0.0000000000000000e+00  -5.5748938856179799e-07 -8.7387212940586467e-08 0.0000000000000000e+00  4.1737428240078190e-07 4.5117661335651743e-08 0.0000000000000000e+00  -2.2672161018889697e-07 -4.5052549285830955e-08 0.0000000000000000e+00  -1.0271394735819411e-06 4.6360975066753912e-09 0.0000000000000000e+00  -1.4784545152468948e-06 7.6685418931646902e-08 0.0000000000000000e+00  -2.5713912812839255e-06 -4.7397391314883746e-07 0.0000000000000000e+00  -8.7349160349037007e-06 -1.1601099193861039e-06 0.0000000000000000e+00  -1.6474822553679772e-06 -2.1864427202733676e-07 0.0000000000000000e+00  -1.0771337691934084e-06 -5.8440659995985260e-08 0.0000000000000000e+00  -1.2365666352445703e-06 1.3965859516212034e-07 0.0000000000000000e+00  6.6176150195324618e-07 2.5632394923417024e-07 0.0000000000000000e+00  -4.9737464403272959e-07 -2.1664314634445772e-09 0.0000000000000000e+00  -3.9065436353037396e-08 -4.3524405097469554e-10 0.0000000000000000e+00  2.5727245097848500e-01 -5.6262615590059852e-03 0.0000000000000000e+00  2.3117726913528874e-01 9.1031264475958714e-03 0.0000000000000000e+00  1.5385964386624476e-01 -1.1537666792328155e-02 0.0000000000000000e+00  2.8714153791318064e-01 -6.6464219481350229e-02 0.0000000000000000e+00  2.3131194712553257e-01 -2.0617162839851378e-04 0.0000000000000000e+00  2.3096603720866216e-01 -3.5252920288308091e-04 0.0000000000000000e+00  2.7015909710607779e-07 2.8918942419301886e-09 0.0000000000000000e+00  1.3386661858469467e-07 1.1746771867682211e-09 0.0000000000000000e+00  -4.9961355131035698e-07 4.1847050951140462e-09 0.0000000000000000e+00  1.8517146779309032e-01 -1.2933625054316827e-04 0.0000000000000000e+00  -1.0477720558281023e-06 -6.1082972519444870e-08 0.0000000000000000e+00  2.4192207510227162e-01 -7.5341781405718733e-02 0.0000000000000000e+00  -2.5282011444217696e-06 3.4844724540788304e-07 0.0000000000000000e+00  -7.6701196373167596e-07 -5.5221704934698331e-08 0.0000000000000000e+00  6.2404968800054455e-07 1.4624877393062030e-07 0.0000000000000000e+00  -2.8132690957029442e-07 -1.7459813344208768e-08 0.0000000000000000e+00  -3.5309012592124206e-07 -8.9077196058665694e-08 0.0000000000000000e+00  -8.5552844390401672e-07 -6.9331724576839515e-08 0.0000000000000000e+00  -3.7782775006528351e-07 -6.0705081662762984e-08 0.0000000000000000e+00  -2.3840486846803161e-06 5.3292891727482831e-08 0.0000000000000000e+00  -5.0699119881303751e-07 8.9164042999895299e-08 0.0000000000000000e+00  2.2516362268788967e-06 -5.7688202197783933e-07 0.0000000000000000e+00  1.2468332316952749e-01 2.8553043786475299e-03 0.0000000000000000e+00  -3.5606806968828385e-07 -6.4069405028180273e-08 0.0000000000000000e+00  2.3558191989689925e-01 1.9340698134103284e-02 0.0000000000000000e+00  2.6538319918027126e-01 -3.8597753325978319e-02 0.0000000000000000e+00  1.0597073088556005e-01 5.0589533185309218e-03 0.0000000000000000e+00  3.0494911363649063e-01 1.0649759898446491e-01 0.0000000000000000e+00  1.9300839879996923e-01 2.0038265023726156e-02 0.0000000000000000e+00  3.4899080791360459e-01 -4.5850848769333895e-02 0.0000000000000000e+00  2.4095540014782976e-01 -5.0550328985652850e-02 0.0000000000000000e+00  6.7420452896562705e-02 4.4848316012997679e-02 0.0000000000000000e+00  2.0684813494763346e-01 8.1831510108979529e-04 0.0000000000000000e+00  2.0666661823150642e-01 -3.3483072803803848e-04 0.0000000000000000e+00  1.8485552602983876e-01 1.3252966894785482e-03 0.0000000000000000e+00  7.5234905665347629e-02 4.3265374108662658e-08 0.0000000000000000e+00  2.7319254136271603e-01 2.0835207043359320e-08 0.0000000000000000e+00  2.2131510979535315e-01 -3.7529466222600475e-04 0.0000000000000000e+00  2.4047549498684895e-01 7.2512553819219727e-02 0.0000000000000000e+00  1.6258859077066223e-01 -2.5137385306211963e-04 0.0000000000000000e+00  1.4124687475856457e-01 -4.8071311507906665e-03 0.0000000000000000e+00  1.5514725782899030e-01 2.0232980916497424e-02 0.0000000000000000e+00  3.2268014829492081e-01 -2.4897845309466982e-02 0.0000000000000000e+00  1.8028873601540693e-01 -2.1899082682657779e-04 0.0000000000000000e+00  1.9115918697054202e-01 7.0982750637335725e-03 0.0000000000000000e+00  1.0317030048000586e-01 -3.5388155528868662e-02 0.0000000000000000e+00  3.9079412826394666e-01 -3.7310251340537628e-02 0.0000000000000000e+00  5.8403112794545395e-02 1.2093683826883431e-02 0.0000000000000000e+00  1.8473047563434372e-01 -1.1984243061177204e-04 0.0000000000000000e+00  2.7039481272361449e-01 -4.3304600075684166e-02 0.0000000000000000e+00  2.1425049196455162e-01 -1.4789487144395395e-03 0.0000000000000000e+00  1.4890560109401965e-01 -2.8054859634017777e-02 0.0000000000000000e+00  2.1008689423589917e-02 4.8928089382916078e-03 0.0000000000000000e+00  4.2684842292079306e-01 -3.6036022148722750e-02 0.0000000000000000e+00  -4.0281767345243172e-07 8.7496658757869236e-10 0.0000000000000000e+00  2.3001000978744432e-01 1.1488793199718010e-03 0.0000000000000000e+00  -9.6104183234708627e-07 2.3472718563317037e-09 0.0000000000000000e+00  1.9316733638301287e-01 7.2959451744843114e-03 0.0000000000000000e+00  2.7977307857692496e-01 -3.2112756029953726e-02 0.0000000000000000e+00  2.7218005199108747e-01 -5.0938529193519426e-02 0.0000000000000000e+00  1.2569968207369589e-01 7.1211025764019220e-02 0.0000000000000000e+00  2.3111191190172281e-01 1.4790834736144782e-02 0.0000000000000000e+00  2.0877908085053382e-01 2.4414979911689314e-02 0.0000000000000000e+00  1.4758513446101523e-01 7.3977770504772639e-02 0.0000000000000000e+00  4.5667089084165724e-01 -1.3477068111532032e-02 0.0000000000000000e+00  7.5860983048986419e-02 1.9773458818104776e-02 0.0000000000000000e+00  -2.1148738555530314e-07 -1.0594362471231402e-07 0.0000000000000000e+00  1.4071348423102742e-01 -1.4456317961016317e-04 0.0000000000000000e+00  -1.6037334898571364e-06 2.7857361353003259e-09 0.0000000000000000e+00  -1.2978683954824423e-06 8.8208320489870002e-09 0.0000000000000000e+00  -1.4249364767718801e-07 -1.2677026692331348e-08 0.0000000000000000e+00  2.3390989677949925e-01 2.5465348726994793e-02 0.0000000000000000e+00  -1.8937574158626963e-06 -1.4489681681581003e-08 0.0000000000000000e+00  4.0382024455450871e-01 4.2374400973075724e-02 0.0000000000000000e+00  3.7431253866303249e-01 7.7531952641740343e-02 0.0000000000000000e+00  1.5009061279058189e-01 1.4206864561718828e-03 0.0000000000000000e+00  3.4357684103977904e-01 1.3146343232199634e-02 0.0000000000000000e+00  -1.5794854113148059e-06 -1.5701681977277017e-07 0.0000000000000000e+00  -8.4938755081134138e-08 -1.1151184961864480e-08 0.0000000000000000e+00  -6.6133778941347267e-07 -5.6903265167946588e-08 0.0000000000000000e+00  1.5542725469667037e-01 -2.5449639442780649e-04 0.0000000000000000e+00  9.9554130385614115e-02 -2.9710488990061096e-03 0.0000000000000000e+00  -2.9063003107155465e-07 -9.7312299244421195e-08 0.0000000000000000e+00  1.4621830574163888e-01 -2.4334457906735510e-02 0.0000000000000000e+00  1.5541607900632276e-01 1.4948601977539316e-01 0.0000000000000000e+00  3.9594535168967759e-01 -3.4782638403303749e-02 0.0000000000000000e+00  1.9191849233917839e-06 -7.5132060332483599e-08 0.0000000000000000e+00  1.1652474389583294e-01 4.7065989881076832e-02 0.0000000000000000e+00  2.6126131830866500e-01 -4.8164418168998829e-02 0.0000000000000000e+00  1.0387693724890686e-01 -3.7240683331530328e-02 0.0000000000000000e+00  1.2266025330323311e-06 -3.9838343686038904e-07 0.0000000000000000e+00  2.7021303439253373e-02 1.1514331800226806e-02 0.0000000000000000e+00  2.3268731591808203e-01 1.6512277646977810e-02 0.0000000000000000e+00  2.5265763117792917e-01 -3.6953793995261976e-02 0.0000000000000000e+00  2.5624384217505880e-01 -7.7415481092216937e-02 0.0000000000000000e+00  1.6451041600398217e-01 7.5090501251534958e-03 0.0000000000000000e+00  1.4429796127303454e-01 -2.3461710188998081e-02 0.0000000000000000e+00  2.3882860455320051e-01 2.5107675821876833e-02 0.0000000000000000e+00  6.7041467580305533e-02 1.7316416124696931e-02 0.0000000000000000e+00  1.2700331939961038e-01 8.8122786828268137e-04 0.0000000000000000e+00  2.3279672574391119e-02 9.6967941970582117e-03 0.0000000000000000e+00  2.1177391678934529e-01 7.7440382498196111e-03 0.0000000000000000e+00  3.5788486375287816e-02 1.5478933134869432e-02 0.0000000000000000e+00  1.0141678688775672e-01 -2.0250282859667481e-02 0.0000000000000000e+00  -9.3338836809499843e-07 -1.1103899932545956e-07 0.0000000000000000e+00  -7.6611389581072675e-07 9.0718549221138185e-08 0.0000000000000000e+00  -6.2880810739098362e-07 3.8278127186014824e-07 0.0000000000000000e+00  3.4628417579896720e-01 -3.7733218676735805e-02 0.0000000000000000e+00  7.8050492463499294e-02 3.1247310716336168e-02 0.0000000000000000e+00  -2.2493928132598262e-06 -1.0594426455019503e-07 0.0000000000000000e+00  -7.8866723068732181e-07 -1.3104181554118812e-07 0.0000000000000000e+00  1.2139327586012702e-01 1.1651724927694947e-02 0.0000000000000000e+00  2.1841980599555524e-01 4.1985747069312844e-03 0.0000000000000000e+00  -6.3747412515549469e-07 -1.9497156320790537e-08 0.0000000000000000e+00  -2.9127546422696571e-06 5.1553203309255489e-07 0.0000000000000000e+00  8.8918928433437089e-07 3.5090934175249978e-07 0.0000000000000000e+00  -2.0671292839135965e-07 -1.2548800286466122e-08 0.0000000000000000e+00  -7.0348978908259258e-08 2.4218177201436523e-09 0.0000000000000000e+00  3.7625532223616134e-07 -2.9863782304293594e-08 0.0000000000000000e+00  -2.2395098110118017e-06 -2.6311138517639506e-07 0.0000000000000000e+00  1.4159082055327046e-06 -2.5742070802688939e-07 0.0000000000000000e+00  1.5723556844946798e-08 -3.9535517412358925e-08 0.0000000000000000e+00  -2.7425984096073057e-07 1.6511142002246142e-07 0.0000000000000000e+00  5.1677521169501302e-07 -7.2993373315429313e-08 0.0000000000000000e+00  -8.9702448184915659e-07 2.9205234166500315e-09 0.0000000000000000e+00  -2.5350137561467354e-07 2.3669168613157784e-09 0.0000000000000000e+00  4.3271912069782370e-02 6.6230578111898687e-03 0.0000000000000000e+00  1.0419342567134846e-01 -1.2280622985921115e-02 0.0000000000000000e+00  2.0898050657246003e-01 -1.6705144513720082e-02 0.0000000000000000e+00  1.2719271882509078e-01 6.5190631358718566e-03 0.0000000000000000e+00  2.9151416680950870e-01 7.5760227765629476e-02 0.0000000000000000e+00  3.3739763820953395e-01 5.3526659789620311e-02 0.0000000000000000e+00  3.1540708638304044e-01 2.6282133327700619e-02 0.0000000000000000e+00  1.4528264398251051e-01 -1.2726440082570849e-04 0.0000000000000000e+00  2.3109766029646600e-01 2.5139444141095823e-02 0.0000000000000000e+00  3.1587959973910662e-01 -8.1093330791387253e-02 0.0000000000000000e+00  7.8281592777276199e-02 -6.6071815939356135e-03 0.0000000000000000e+00  2.3048920240732926e-01 -3.4307816674538635e-04 0.0000000000000000e+00  2.3113193143986643e-01 -4.6178181829568168e-04 0.0000000000000000e+00  2.1887353728877987e-01 -4.1416381447189336e-04 0.0000000000000000e+00  2.2739535998007054e-01 1.2203091060277604e-04 0.0000000000000000e+00  1.2816745318268200e-01 1.6484550608951177e-04 0.0000000000000000e+00  1.3707226203268524e-01 -1.7257525000244313e-04 0.0000000000000000e+00  1.9872327903250719e-01 1.9062569412649827e-01 0.0000000000000000e+00  3.9313748954107941e-02 4.4821949325823743e-02 0.0000000000000000e+00  1.2674735690483421e-01 -1.3357978582282638e-02 0.0000000000000000e+00  2.1970292260029120e-01 -4.8715503329089206e-03 0.0000000000000000e+00  2.0142708885730015e-01 9.9254649826563193e-03 0.0000000000000000e+00  2.2244807563570509e-01 1.6308398847298091e-02 0.0000000000000000e+00  3.0034226828470312e-01 -8.1983266656284942e-02 0.0000000000000000e+00  2.1646387059749486e-01 -4.2754818842128767e-04 0.0000000000000000e+00  8.9493352019319211e-02 6.9874368234183956e-03 0.0000000000000000e+00  2.5359879075861275e-01 7.7080941744431314e-03 0.0000000000000000e+00  3.3378003932271166e-01 -6.2014799060829885e-02 0.0000000000000000e+00  1.3212097744434953e-01 1.6231677859766896e-03 0.0000000000000000e+00  2.1813344894119613e-01 4.8811008503962692e-03 0.0000000000000000e+00  1.3122665871391187e-01 5.5829112494607268e-05 0.0000000000000000e+00  1.6277050812592925e-01 7.6189971335111795e-02 0.0000000000000000e+00  2.4657331832339893e-01 1.3044409528194387e-01 0.0000000000000000e+00  2.1993783213379878e-01 3.1094323441104934e-02 0.0000000000000000e+00  1.5570839971628453e-01 -1.3280743048509017e-02 0.0000000000000000e+00  2.7154470238482475e-01 -3.3752312667405457e-02 0.0000000000000000e+00  2.5838268034157097e-01 -5.0545351552957564e-02 0.0000000000000000e+00  3.9249169595148742e-01 1.7989509514563871e-02 0.0000000000000000e+00  2.2461916131855755e-01 -1.2849301285258527e-02 0.0000000000000000e+00  2.0051834124005294e-01 -3.0547426134748361e-02 0.0000000000000000e+00  3.4054868279781347e-01 1.8373769842350376e-01 0.0000000000000000e+00  2.7766510481951334e-01 3.6396959771321333e-02 0.0000000000000000e+00  2.3157179370518416e-01 7.2349224803329740e-02 0.0000000000000000e+00  2.3121515152628583e-01 3.8214591029225213e-03 0.0000000000000000e+00  2.0036481037487039e-01 -2.3602891563115938e-04 0.0000000000000000e+00  2.2095140810525879e-01 -1.7882892645632289e-04 0.0000000000000000e+00  2.9869316089645775e-01 -3.8636072690971739e-02 0.0000000000000000e+00  1.2562153084620575e-01 2.5510089853223887e-02 0.0000000000000000e+00  8.5723471633394249e-02 8.4741103255025121e-03 0.0000000000000000e+00  2.1010257458417647e-01 2.1557932153720448e-02 0.0000000000000000e+00  1.5811880924223853e-01 4.9352792496366739e-02 0.0000000000000000e+00  2.5033141462604863e-01 -1.8357932004110802e-02 0.0000000000000000e+00  1.5093025567594714e-01 -8.7451467826537913e-03 0.0000000000000000e+00  4.3106975540896243e-02 -9.6725265815772645e-03 0.0000000000000000e+00  4.6280646577033013e-01 4.2957195853027104e-02 0.0000000000000000e+00  1.0954646578091722e-01 -1.3452730472526193e-03 0.0000000000000000e+00  3.4708631525243328e-01 -2.6645956240102311e-02 0.0000000000000000e+00  2.0507365328647725e-01 -2.2648283917400759e-04 0.0000000000000000e+00  2.3755024040916750e-01 -1.1923430663472930e-02 0.0000000000000000e+00  1.7974360929749472e-01 2.4294904200438894e-02 0.0000000000000000e+00  2.1485578775623509e-01 1.8085336409855910e-02 0.0000000000000000e+00  1.7058503838287892e-01 -6.0909506348871260e-02 0.0000000000000000e+00  2.3545324638321683e-02 3.8758965010829535e-03 0.0000000000000000e+00  1.0526319969894457e-01 1.8875373527437326e-03 0.0000000000000000e+00  5.0600644873432530e-03 -8.7827511543825121e-03 0.0000000000000000e+00  9.1458751391684384e-02 9.7778533880069594e-03 0.0000000000000000e+00  6.2793116626830292e-02 1.7628875281407663e-02 0.0000000000000000e+00  1.9865630782930868e-01 -9.8037381058553076e-05 0.0000000000000000e+00  1.0866781381676159e-01 -9.2657868367854461e-05 0.0000000000000000e+00  4.0250939801156810e-01 -4.0153975689597943e-02 0.0000000000000000e+00  2.2448630190982033e-01 9.1982312767709181e-03 0.0000000000000000e+00  2.0761922778974654e-01 4.1636834768371761e-04 0.0000000000000000e+00  3.5785431821274499e-02 8.0829562131970264e-08 0.0000000000000000e+00  7.8396166481346272e-02 1.2334958167438945e-02 0.0000000000000000e+00  1.5902791812977782e-01 4.2050138324742123e-02 0.0000000000000000e+00  2.2552936061938286e-01 1.6996505267666996e-06 0.0000000000000000e+00  2.1585463031637156e-01 1.3707651597127921e-02 0.0000000000000000e+00  1.6408771046676027e-01 -7.5239479495186551e-03 0.0000000000000000e+00  3.2422852023483584e-01 -3.0517909049884315e-02 0.0000000000000000e+00  3.8094989355163811e-01 3.5627528584427970e-02 0.0000000000000000e+00  1.4333723183925451e-01 2.6036122599578885e-03 0.0000000000000000e+00  9.7445257099542062e-02 1.9990663210376495e-03 0.0000000000000000e+00  1.1268485142802603e-01 -5.6751474166149256e-05 0.0000000000000000e+00  -8.0266563292798066e-03 1.4893130243985434e-02 0.0000000000000000e+00  3.3356378600382741e-01 3.4354795325789150e-08 0.0000000000000000e+00  5.9264464508200373e-02 -5.0206082875976393e-05 0.0000000000000000e+00  3.9185291346606987e-01 3.4496557061871329e-03 0.0000000000000000e+00  1.1743063725110887e-01 -1.5999679548505245e-04 0.0000000000000000e+00  3.1690113167622891e-01 -4.5338478771661479e-02 0.0000000000000000e+00  1.1852650618880521e-01 -2.9738291014715958e-08 0.0000000000000000e+00  2.2120756858364271e-01 -1.7687227456520671e-04 0.0000000000000000e+00  1.1229097873873070e-01 -4.0531881101344272e-05 0.0000000000000000e+00  2.1733315125189187e-01 -2.5638819096115549e-08 0.0000000000000000e+00  1.1313671602743836e-01 4.0976742381550364e-04 0.0000000000000000e+00  1.6473457855870133e-01 1.0403038424728346e-02 0.0000000000000000e+00  2.2711910268524121e-01 -2.8316204326486315e-04 0.0000000000000000e+00  3.4172203047522207e-02 -1.7600607424122599e-02 0.0000000000000000e+00  6.7243802114267157e-02 -1.2211757097958010e-02 0.0000000000000000e+00  1.8665523724695324e-01 -5.4161454653553841e-02 0.0000000000000000e+00  -6.6567081885638649e-03 4.7515888144929273e-03 0.0000000000000000e+00  3.1293731667381575e-01 -1.6524651102290473e-02 0.0000000000000000e+00  2.8583712787478704e-01 -1.7214324528444715e-02 0.0000000000000000e+00  4.0912337469283450e-01 -4.6269574164578837e-02 0.0000000000000000e+00  1.1928746407992996e-01 3.6246458948044954e-03 0.0000000000000000e+00  2.7476213069290606e-01 -3.3551191075588217e-02 0.0000000000000000e+00  2.7963134870043582e-01 -1.6720109563740933e-02 0.0000000000000000e+00  1.9221659455666118e-01 -3.4643918398873964e-04 0.0000000000000000e+00  2.0947198095619463e-01 -5.3692287106944105e-02 0.0000000000000000e+00  8.4664369079043705e-02 -8.4725811837165838e-05 0.0000000000000000e+00  1.8614599228546563e-01 -7.8480192636022211e-03 0.0000000000000000e+00  3.25