<?xml version="1.0"?>
<VTKFile type="UnstructuredGrid"  version="0.1"  >
<UnstructuredGrid>
<Piece  NumberOfPoints="1404" NumberOfCells="2604">
<Points>
<DataArray  type="Float64"  NumberOfComponents="3"  format="ascii">0 0.41 0  0 0 0  2.2 0 0  2.2 0.41 0  0.2353553390593274 0.2353553390593274 0  0.25 0.2 0  0.2353553390593274 0.1646446609406726 0  0.2 0.15 0  0.1646446609406726 0.1646446609406726 0  0.15 0.2 0  0.1646446609406726 0.2353553390593274 0  0.2 0.25 0  0.6923879532511287 0.188268343236509 0  0.7 0.15 0  0.6923879532511287 0.1117316567634909 0  0.6707106781186547 0.07928932188134523 0  0.6382683432365089 0.05761204674887133 0  0.6 0.04999999999999999 0  0.5617316567634909 0.05761204674887134 0  0.5292893218813453 0.07928932188134524 0  0.5076120467488713 0.111731656763491 0  0.5 0.15 0  0.5076120467488713 0.188268343236509 0  0.5292893218813453 0.2207106781186547 0  0.561731656763491 0.2423879532511287 0  0.6 0.25 0  0.6382683432365089 0.2423879532511287 0  0.6707106781186547 0.2207106781186547 0  1.1 0 0  0 0.205 0  1.1 0.41 0  0.55 0 0  0.55 0.41 0  0.275 0 0  0.8250000000000001 0 0  0.275 0.41 0  0.8250000000000001 0.41 0  0.6875 0 0  0.61875 0 0  1.65 0.41 0  1.65 0 0  1.375 0 0  1.375 0.41 0  1.925 0 0  1.925 0.41 0  1.5125 0.205 0  1.7875 0.205 0  0.9625000000000001 0.205 0  1.2375 0.205 0  2.2 0.205 0  1.99375 0.2152743902439024 0  0.4125 0.41 0  2.0625 0 0  2.0625 0.41 0  2.2 0.3075 0  1.7875 0.41 0  1.375 0.1486128048780488 0  1.5125 0 0  1.7875 0 0  1.5125 0.41 0  0.9625000000000001 0.41 0  0.4125 0 0  0.1375 0 0  0.1375 0.41 0  0.6875 0.41 0  0.9625000000000001 0 0  1.2375 0 0  1.1 0.1486128048780488 0  1.2375 0.41 0  1.65 0.1486128048780487 0  0.823495464168302 0.2603780552348366 0  0.3738707794507017 0.2720196349488618 0  0.3662291281331582 0.1311456406657909 0  1.676715909090909 0.2793064024390244 0  1.126715909090909 0.2793064024390244 0  1.348284090909091 0.2793064024390244 0  0.8287581077665108 0.1302150898054257 0  1.894702181800738 0.1282910975492754 0  2.092797818199262 0.1282910975492754 0  1.85625 0.3075 0  0 0.3075 0  0 0.1025 0  2.099172119769978 0.25625 0  0.4752414543992246 0.3180372603390748 0  1.99375 0.08395950269330846 0  1.459960956013612 0.3075 0  1.569025960719943 0.2986889805672169 0  1.03125 0.3278689922742084 0  1.959375 0.3126371951219512 0  1.749222215368287 0.1025 0  1.275777784631713 0.1025 0  0.9228016959331474 0.3075 0  1.000777784631713 0.1025 0  2.2 0.1025 0  1.225938124459196 0.3075 0  1.550777784631713 0.1025 0  1.44375 0.07430640243902442 0  1.16875 0.07430640243902439 0  0.7562500000000001 0.3358727844323386 0  0.89375 0 0  1.899250267340833 0.2229966846119207 0  0.61875 0.41 0  1.766482954545455 0.2934032012195123 0  1.046078563095834 0.2389031808701145 0  1.421109702350723 0.2261157654379721 0  0.07567171807980319 0.25625 0  0.2511897295290552 0.3235829392832554 0  0.07655002503762308 0.1488653460959645 0  0.1377245246847496 0.3206030474919778 0  0.6694099692696568 0.3242771941727899 0  0.9168971191497528 0.1295727156104653 0  0.7562500000000001 0 0  2.118919042110979 0.3422084711244843 0  2.13125 0 0  0.06875000000000001 0 0  1.30625 0.41 0  1.597888256393107 0.2173787389261347 0  0.34375 0.41 0  0.2493272016354703 0.08091360081773515 0  0.5588896233436766 0.3264056208677571 0  1.829299675393195 0.07400700849299596 0  0.1334079128307869 0.08523463035786674 0  1.71875 0.41 0  0.06875000000000001 0.41 0  1.16875 0.41 0  2.038220665644273 0.332420740103091 0  0.8810647413215221 0.2027360103977071 0  0.34375 0 0  0.7453891198966415 0.2471459041008237 0  0.42112093004955 0.1988123139090554 0  0.8314023090855964 0.3351170841770613 0  0.89375 0.41 0  0.7906250000000001 0.06615386481594063 0  1.452769549894695 0.1548122580621249 0  1.369219062229598 0.07430640243902442 0  1.30625 0 0  1.07420695807087 0.07430640243902439 0  1.720943423819132 0.1714577452753128 0  1.157188124459196 0.205 0  1.304056576180868 0.1714577452753128 0  1.67579304192913 0.07430640243902437 0  1.209670467133757 0.136210026696477 0  0.4312800784902823 0.08036147352247747 0  0.8723959680194693 0.07066860609690805 0  1.025335513626278 0.1700681449722324 0  0.7945632284247136 0.1940204203251442 0  0.378125 0.3452261501101892 0  0.3307109909790086 0.2037165635083759 0  0.3009701032039409 0.2702970083403109 0  0.20625 0.41 0  1.58125 0 0  0.4812500000000001 0 0  0.9838963872396855 0.2722244191167347 0  0.06772484939107212 0.3260067317374387 0  0.20625 0 0  1.58125 0.41 0  1.631724228912893 0.3381867502687533 0  1.825608881788174 0.14499488549201 0  1.85625 0 0  1.44375 0 0  1.44375 0.41 0  1.85625 0.41 0  2.13125 0.41 0  0.7562500000000001 0.41 0  0.4812500000000001 0.41 0  1.16875 0 0  1.03125 0.41 0  1.03125 0 0  1.71875 0 0  1.99375 0 0  1.99375 0.41 0  0.9408708167433545 0.0651989315768642 0  1.340625 0.3489494290853124 0  1.134375 0.3489494290853123 0  1.700180620188976 0.3438659752031281 0  0.29668452290037 0.1318471691375986 0  0.3175441051360096 0.06496934809856265 0  0.06509151636162461 0.08140814015999148 0  2.135782184673599 0.07126652247502523 0  1.668441847249787 0.2129203728327609 0  1.295782514339747 0.2378437748815763 0  1.409375 0.3520314716057996 0  2.129248544730567 0.1906135162504124 0  2.060771381434487 0.1989445750470348 0  2.013252586573865 0.1496169464686054 0  1.942766402200229 0.1734448904596831 0  1.895522487186454 0.06076163953489683 0  2.069553871656643 0.06605731020975725 0  0.4670911801404742 0.2498408582391372 0  0.7622743084658112 0.1264100838268133 0  1.274680914880868 0.3520219391081363 0  0.3148669572599245 0.3331753056385887 0  1.614713220494657 0.09473434380863296 0  1.72990325744076 0.2380068107952482 0  1.356580098625191 0.2120393231351682 0  2.034370752044885 0.2668681600792073 0  1.51768709249349 0.3426260931494756 0  1.561883724969884 0.1650446847858835 0  1.197344062229598 0.2523725417393646 0  1.804085235518364 0.3468178408964637 0  1.817887819205233 0.2589243285818559 0  1.905897727272727 0.3485060975609756 0  0.7296439733931823 0.06337466644369745 0  0.4250935971865949 0.1394919578475796 0  0.3773030136511669 0.05130372097998036 0  1.192836486056382 0.3562350748565544 0  1.1029124365364 0.226143510831178 0  1.28257088594801 0.2944411014911587 0  0.1905185804731426 0.06029880676029167 0  1.474860187679412 0.2504218616229368 0  1.406767003493824 0.2829282258560709 0  0.5209826960981064 0.2830664557824064 0  0.5131119502780163 0.3617405848213254 0  0.1948220106098172 0.3081993407644811 0  1.845656689180403 0.1998310418452388 0  2.144958525570388 0.2909790873294231 0  2.2 0.15375 0  0.8833025251326762 0.2625402923007629 0  0.171875 0.3653875762360952 0  1.57794966442982 0.3540357145964566 0  0.446875 0.366068291212731 0  0.4272051715206439 0.2891929346190664 0  1.508991196088596 0.1421783375065625 0  1.50436820029908 0.06143401634903343 0  1.223857000523521 0.08235548624535324 0  0.6137904613287555 0.3066826366281556 0  1.153316824384777 0.1289850171317838 0  0.9751573703656133 0.327632618473408 0  2.148922302309752 0.1258841779285271 0  0.9281250000000001 0.3643758685795699 0  1.621993280276081 0.2841214267927899 0  1.550118654119087 0.2461998729100966 0  1.327182649291491 0.1216967252533594 0  0.9939955742738924 0.04663549843168518 0  1.753125 0.04556020050186112 0  1.271875 0.04556020050186116 0  0.9734326767716519 0.1506854560854393 0  0.103125 0.3675775577080512 0  1.94956388244759 0.1180512551534177 0  1.949997712993411 0.04965831614304109 0  0.717433898748555 0.295596016333797 0  1.771961817615021 0.1530278789497521 0  1.909246823951428 0.2812757146784527 0  0 0.35875 0  1.050632804931928 0.1226269704412814 0  0.05695108326502596 0.2024009637347154 0  1.948575539857022 0.2445328248721197 0  1.697271520964565 0.1233917627620729 0  1.065625 0.3689344961371042 0  1.085849084308977 0.3170853572226867 0  0.1015495998772944 0.04226029099983852 0  1.577403511714593 0.05463601888079143 0  1.751571320346033 0.3651102912045228 0  2.2 0.35875 0  0.7441773632462837 0.1786786606458751 0  0 0.05125 0  1.466879772203159 0.3611261772912453 0  0.6282230348858767 0.3577675483994025 0  1.990280163552011 0.3564754268533217 0  1.17471064520912 0.2990917256188288 0  0 0.25625 0  2.2 0.25625 0  2.2 0.05125 0  0 0.15375 0  1.853978576207987 0.35875 0  1.515638456102889 0.2882700110184686 0  2.150453692751374 0.2387066338105111 0  1.323782677156475 0.04897634338873398 0  1.409375 0.03715320121951221 0  1.406484531114799 0.1087852750766809 0  1.134375 0.03715320121951219 0  0.721875 0.3729363922161693 0  0.7941695928236929 0.3696489254637395 0  0.7934827162619036 0.3013409431456604 0  1.627401732573545 0.04552157221025036 0  0.9352049974617431 0.2507047965699472 0  0.8763260682738339 0.3611103317460093 0  2.045405893604797 0.1105340662939892 0  1.255408269734577 0.1577307500159216 0  2.028125 0.03707597992059326 0  1.003030137506755 0.3689344961371042 0  1.248258025468107 0.2565907092181813 0  1.203125 0.03661323374043041 0  0.4800125512335631 0.0549472816999725 0  2.072662025974815 0.2975086504196739 0  0.240625 0.3729825336867542 0  1.113252391110535 0.10238286244357 0  1.071052763974265 0.1885202618768825 0  0.8738809401657862 0.3106483608284829 0  0.6786819423003397 0.2677558482644021 0  1.887722846421017 0.1760882698830035 0  1.472640588990488 0.1118278026240017 0  0.5843750000000001 0.41 0  1.865937103925594 0.2604137786483804 0  1.463913572748262 0.2030442564990043 0  1.376426316059077 0.3186741374914345 0  0.1038643885363755 0.2162701735320032 0  0.1769473813227781 0.1070849728467114 0  0.458787839809176 0.171541653775316 0  0.240625 0 0  0.04179569703428024 0.2877217852556549 0  0.1258346557601885 0.2699740073054968 0  1.722140693354707 0.282908100935778 0  0.41206179117512 0.2448172567039922 0  0.3702471778075604 0.2265217604228704 0  0.3714881805374215 0.1786967818665642 0  1.77397096061971 0.2481483237422926 0  2.105123889160691 0.03743885948498647 0  1.001138337938679 0.229719337663998 0  1.051242910646791 0.2854826559431138 0  1.395420985247586 0.18
[...]
<PointData  Vectors="f_37"> 
<DataArray  type="Float64"  Name="f_37"  NumberOfComponents="3" format="ascii">2.4943463378509975e-07 4.5533045399937961e-08 0.0000000000000000e+00  -4.4494860550367793e-06 -3.5346307391790024e-07 0.0000000000000000e+00  -6.4333057416015349e-07 3.4288218150003545e-09 0.0000000000000000e+00  -8.0018078687703247e-07 8.5893970747406160e-10 0.0000000000000000e+00  -6.0366236082360847e-08 3.1513894619306696e-07 0.0000000000000000e+00  1.1516013180072438e-07 -5.5329480727156523e-08 0.0000000000000000e+00  1.2757779394233336e-07 1.6956806265881112e-07 0.0000000000000000e+00  -9.1142317362957583e-07 -1.0099578365027623e-07 0.0000000000000000e+00  -8.6223494464031127e-07 -1.2861913633508699e-07 0.0000000000000000e+00  1.3007869953295681e-07 -4.4923195232711538e-07 0.0000000000000000e+00  -9.3283643938167541e-07 -5.2327883049794981e-07 0.0000000000000000e+00  -1.0684646842992955e-06 -2.5398402486578084e-07 0.0000000000000000e+00  4.2454828545177799e-07 -9.4319183033484828e-08 0.0000000000000000e+00  -3.3538016434715898e-07 -4.8723394739148081e-07 0.0000000000000000e+00  -3.8401192832704097e-07 -9.1195028622122432e-08 0.0000000000000000e+00  -8.8841684729695414e-07 -1.9423134125494258e-07 0.0000000000000000e+00  2.3961348000498930e-06 4.1974126894898789e-07 0.0000000000000000e+00  3.4754286469458667e-01 9.6691467337105055e-02 0.0000000000000000e+00  1.6690519437460464e-06 -6.1667103229468884e-08 0.0000000000000000e+00  -1.1466782005214124e-06 3.8453809742609622e-07 0.0000000000000000e+00  -1.2907342501768790e-06 -4.1641770369006922e-07 0.0000000000000000e+00  -6.4901185218359988e-08 -5.7789468260711689e-07 0.0000000000000000e+00  4.6461725089596050e-07 5.9532129543007112e-08 0.0000000000000000e+00  -4.3963434368293154e-07 -1.8050172043059331e-06 0.0000000000000000e+00  -3.1174810013275716e-06 -1.6079367690669751e-06 0.0000000000000000e+00  -4.5596141310053253e-06 -4.2896236456648282e-07 0.0000000000000000e+00  -4.4952244175580487e-06 -1.2169813919918208e-07 0.0000000000000000e+00  -3.0232387756975529e-07 7.7187933449926125e-08 0.0000000000000000e+00  6.6560994587910191e-08 2.6449176998080829e-08 0.0000000000000000e+00  1.6583342822187627e-01 -4.3158966295743586e-07 0.0000000000000000e+00  -1.0009920804535329e-06 -7.5460529511634756e-08 0.0000000000000000e+00  3.0695716763116912e-06 9.7771593008409531e-08 0.0000000000000000e+00  -5.5760125247271485e-07 -8.6875240679565308e-08 0.0000000000000000e+00  4.1796097018498097e-07 4.5037105532465073e-08 0.0000000000000000e+00  -2.2081248429478826e-07 -4.5749442552818015e-08 0.0000000000000000e+00  -1.0269081212602384e-06 4.5745510588970773e-09 0.0000000000000000e+00  -1.4801947157283122e-06 7.5894313518492850e-08 0.0000000000000000e+00  -2.5734668031851106e-06 -4.7420480694696310e-07 0.0000000000000000e+00  -8.7372470516318608e-06 -1.1588490014546560e-06 0.0000000000000000e+00  -1.6324330598686314e-06 -2.2179512738532960e-07 0.0000000000000000e+00  -1.1099618251280840e-06 -5.0687311715943275e-08 0.0000000000000000e+00  -1.0819076215416526e-06 1.0464822549119572e-07 0.0000000000000000e+00  5.7813237279275182e-07 2.3516549970024308e-07 0.0000000000000000e+00  -4.9464525302790956e-07 -2.4881701505248872e-09 0.0000000000000000e+00  -4.1100205373471345e-08 -7.2957047746304519e-10 0.0000000000000000e+00  2.5829281587878139e-01 -7.8363570865714084e-03 0.0000000000000000e+00  2.3134625155996871e-01 9.7372633028740673e-03 0.0000000000000000e+00  1.5363952663059979e-01 -1.1748126018458940e-02 0.0000000000000000e+00  2.8590524312332349e-01 -6.4772059936602275e-02 0.0000000000000000e+00  2.3146285307648512e-01 -2.1986875669768611e-04 0.0000000000000000e+00  2.3111705292405885e-01 -3.6361631426764179e-04 0.0000000000000000e+00  2.7066532668440496e-07 3.1744133852403122e-09 0.0000000000000000e+00  1.3214944015836920e-07 1.2520472786373913e-09 0.0000000000000000e+00  -4.9689350968289577e-07 4.3816699371533646e-09 0.0000000000000000e+00  1.8513424543575452e-01 -1.3717255347131486e-04 0.0000000000000000e+00  -1.0695636938408990e-06 -6.5778819875450084e-08 0.0000000000000000e+00  2.4098894004566060e-01 -7.5285765298083368e-02 0.0000000000000000e+00  -2.5796795507708260e-06 3.6371440572790159e-07 0.0000000000000000e+00  -7.5373788473717815e-07 -5.8462262784390217e-08 0.0000000000000000e+00  6.9674312449359329e-07 1.6657112136089650e-07 0.0000000000000000e+00  -2.7814351174177090e-07 -1.6102852585125646e-08 0.0000000000000000e+00  -3.5225731652394743e-07 -8.8880809315972838e-08 0.0000000000000000e+00  -8.5526873242789147e-07 -6.9356417019340574e-08 0.0000000000000000e+00  -3.7817879052116663e-07 -6.0745295164759625e-08 0.0000000000000000e+00  -2.3852254133069006e-06 5.3138427902193198e-08 0.0000000000000000e+00  -4.9840606790672648e-07 8.6270273040717259e-08 0.0000000000000000e+00  2.2168123493099873e-06 -5.6039170929562218e-07 0.0000000000000000e+00  1.2415033470259193e-01 2.8165331806871675e-03 0.0000000000000000e+00  -3.4902893969394070e-07 -6.4855029261478495e-08 0.0000000000000000e+00  2.3649417861971242e-01 1.9503536711717701e-02 0.0000000000000000e+00  2.6539331183669412e-01 -3.8553541165946122e-02 0.0000000000000000e+00  1.0598426169142530e-01 5.0508725633281598e-03 0.0000000000000000e+00  3.0494284884922063e-01 1.0649178513383958e-01 0.0000000000000000e+00  1.9218257751422324e-01 2.0779421411822763e-02 0.0000000000000000e+00  3.4878329080703135e-01 -4.5128972007086050e-02 0.0000000000000000e+00  2.4292056794763550e-01 -5.1088820924078335e-02 0.0000000000000000e+00  6.7302822572362267e-02 4.4794004341829514e-02 0.0000000000000000e+00  2.0687289496664277e-01 9.0950105057536188e-04 0.0000000000000000e+00  2.0666213179462195e-01 -3.5555227598694323e-04 0.0000000000000000e+00  1.8476032496858130e-01 1.4575576858754571e-03 0.0000000000000000e+00  7.5234905708364136e-02 4.3169265147636886e-08 0.0000000000000000e+00  2.7319254114609604e-01 2.0556749509512863e-08 0.0000000000000000e+00  2.2141321169473097e-01 -3.9864769407949816e-04 0.0000000000000000e+00  2.4046242631124382e-01 7.2508133537232913e-02 0.0000000000000000e+00  1.6246043155231471e-01 -2.6110676056055078e-04 0.0000000000000000e+00  1.4169772553401488e-01 -6.1065104905056108e-03 0.0000000000000000e+00  1.5418720442090925e-01 1.9699257889955617e-02 0.0000000000000000e+00  3.2273639868854054e-01 -2.4741241516235486e-02 0.0000000000000000e+00  1.8027302797536798e-01 -2.2016210995050899e-04 0.0000000000000000e+00  1.9156752161314680e-01 7.4855643443998083e-03 0.0000000000000000e+00  1.0218642393558310e-01 -3.3916766540691527e-02 0.0000000000000000e+00  3.9084290681676426e-01 -3.7347706355184626e-02 0.0000000000000000e+00  5.8651667289129614e-02 1.1673674030166536e-02 0.0000000000000000e+00  1.8467070097017516e-01 -1.2779846859058136e-04 0.0000000000000000e+00  2.7180179953195033e-01 -4.2827068604385961e-02 0.0000000000000000e+00  2.1446843762588405e-01 -2.6511253356284134e-03 0.0000000000000000e+00  1.4720928375690889e-01 -2.8813873575889264e-02 0.0000000000000000e+00  2.1504801665374104e-02 5.2821160710031460e-03 0.0000000000000000e+00  4.2690393590922221e-01 -3.6012357115262725e-02 0.0000000000000000e+00  -3.9082345584098777e-07 -2.0252595693708448e-09 0.0000000000000000e+00  2.3014024100062772e-01 1.2735809839890394e-03 0.0000000000000000e+00  -9.6190241583338939e-07 2.9805454346983219e-09 0.0000000000000000e+00  1.9274979423832181e-01 7.8083002510364067e-03 0.0000000000000000e+00  2.7939047106392478e-01 -3.2068638157411206e-02 0.0000000000000000e+00  2.7345176597369963e-01 -5.2764536899866564e-02 0.0000000000000000e+00  1.2570001060942712e-01 7.1213429783098178e-02 0.0000000000000000e+00  2.3111429221460603e-01 1.4787643988383010e-02 0.0000000000000000e+00  2.0877856208106793e-01 2.4416929155888292e-02 0.0000000000000000e+00  1.4758655371910365e-01 7.3979460652729118e-02 0.0000000000000000e+00  4.5668787208121325e-01 -1.3446403146123245e-02 0.0000000000000000e+00  7.5768663666818725e-02 1.9596194034544386e-02 0.0000000000000000e+00  -2.1096966084163851e-07 -1.0680886784617263e-07 0.0000000000000000e+00  1.4063798051300014e-01 -1.5314355988247540e-04 0.0000000000000000e+00  -1.6035584576187023e-06 2.9999520919044144e-09 0.0000000000000000e+00  -1.2977401958775826e-06 8.7912625070490844e-09 0.0000000000000000e+00  -1.6753306155447833e-07 -2.3664906402904103e-08 0.0000000000000000e+00  2.3447599100993982e-01 2.4942530797794658e-02 0.0000000000000000e+00  -1.8932208627465458e-06 -1.4326158593276434e-08 0.0000000000000000e+00  4.0381712885919413e-01 4.2373665724407969e-02 0.0000000000000000e+00  3.7430597313168251e-01 7.7544092881979124e-02 0.0000000000000000e+00  1.5007834630801689e-01 1.5365554426767080e-03 0.0000000000000000e+00  3.4357554444609295e-01 1.3147756534942072e-02 0.0000000000000000e+00  -1.6006129634129971e-06 -1.6350780451657889e-07 0.0000000000000000e+00  -8.5120627470987133e-08 -1.1127278002190262e-08 0.0000000000000000e+00  -6.5625727488481537e-07 -5.7766041573051888e-08 0.0000000000000000e+00  1.5537600951090202e-01 -2.6787750634766494e-04 0.0000000000000000e+00  9.9459727230143763e-02 -3.0038024925114026e-03 0.0000000000000000e+00  -2.8978116947979292e-07 -9.7275176828737107e-08 0.0000000000000000e+00  1.4617479386776860e-01 -2.4277679002660847e-02 0.0000000000000000e+00  1.5541532890874854e-01 1.4947419941807813e-01 0.0000000000000000e+00  3.9602905174581343e-01 -3.4787145447867505e-02 0.0000000000000000e+00  1.9200392628823048e-06 -7.5328401485428213e-08 0.0000000000000000e+00  1.1653750568094391e-01 4.7048014070997693e-02 0.0000000000000000e+00  2.6137471670853196e-01 -5.0003727285545842e-02 0.0000000000000000e+00  1.0189371245934797e-01 -3.6920883119292452e-02 0.0000000000000000e+00  1.3301029030961535e-06 -4.1599969310824628e-07 0.0000000000000000e+00  2.7777553089121911e-02 1.1227798409337419e-02 0.0000000000000000e+00  2.3323065384297106e-01 1.7261784762327228e-02 0.0000000000000000e+00  2.5143642956032508e-01 -3.6029706015366030e-02 0.0000000000000000e+00  2.5505066272907045e-01 -7.5910896841383815e-02 0.0000000000000000e+00  1.6517243782414379e-01 7.6950394969332384e-03 0.0000000000000000e+00  1.4350529617538743e-01 -2.2126150378408736e-02 0.0000000000000000e+00  2.3883153925401798e-01 2.5111105118754806e-02 0.0000000000000000e+00  6.7131302277625704e-02 1.7297983809320547e-02 0.0000000000000000e+00  1.2649121873615130e-01 5.0442928205869219e-04 0.0000000000000000e+00  2.3257387792388420e-02 9.7717601505025280e-03 0.0000000000000000e+00  2.1176853739492912e-01 7.7426646388520743e-03 0.0000000000000000e+00  3.5786339062847131e-02 1.5479215127284203e-02 0.0000000000000000e+00  1.0142807758267951e-01 -2.0251004150377509e-02 0.0000000000000000e+00  -9.3373604418153858e-07 -1.1121054558419491e-07 0.0000000000000000e+00  -8.1608296126871689e-07 1.0651213939057320e-07 0.0000000000000000e+00  -6.2621865658569750e-07 3.8306519049023935e-07 0.0000000000000000e+00  3.4624567831935182e-01 -3.7760534781628899e-02 0.0000000000000000e+00  7.8050832717826632e-02 3.1248840580139398e-02 0.0000000000000000e+00  -2.2489733170320310e-06 -1.0599875651187477e-07 0.0000000000000000e+00  -6.9988502309818102e-07 -1.1742029626563173e-07 0.0000000000000000e+00  1.2004981312176224e-01 1.1883655354744071e-02 0.0000000000000000e+00  2.1861596661655733e-01 4.5272127266185944e-03 0.0000000000000000e+00  -6.2842215923153361e-07 -2.1227047261616089e-08 0.0000000000000000e+00  -2.8893320648842760e-06 5.0429133925480827e-07 0.0000000000000000e+00  8.5185457421018468e-07 3.5251803327510370e-07 0.0000000000000000e+00  -2.1798167577900965e-07 -1.3982030345166658e-08 0.0000000000000000e+00  -6.8415872327075639e-08 2.5555167318779498e-09 0.0000000000000000e+00  3.7470289688353494e-07 -3.0688083769427398e-08 0.0000000000000000e+00  -2.2389997275466484e-06 -2.6274059702118168e-07 0.0000000000000000e+00  1.3219181093254931e-06 -2.3276748844801656e-07 0.0000000000000000e+00  2.3102808225623624e-08 -3.5700091322680392e-08 0.0000000000000000e+00  -2.8106139704984205e-07 1.6459257828058303e-07 0.0000000000000000e+00  5.2606890596446104e-07 -7.4392931394630861e-08 0.0000000000000000e+00  -8.9699538709294105e-07 2.9739965224486280e-09 0.0000000000000000e+00  -2.5139153658541411e-07 2.4668557568668467e-09 0.0000000000000000e+00  4.3488479501962281e-02 6.4931603810426640e-03 0.0000000000000000e+00  1.0553150195676968e-01 -1.2344221335826373e-02 0.0000000000000000e+00  2.0967304448046201e-01 -1.6471164461606055e-02 0.0000000000000000e+00  1.2634322162320513e-01 6.8459982640542722e-03 0.0000000000000000e+00  2.9150833206201177e-01 7.5759423198621501e-02 0.0000000000000000e+00  3.3739633354945925e-01 5.3525006919424106e-02 0.0000000000000000e+00  3.1540681335210669e-01 2.6282943258538527e-02 0.0000000000000000e+00  1.4516752142174397e-01 -1.3551372595442524e-04 0.0000000000000000e+00  2.3142951451734900e-01 2.5790873027019864e-02 0.0000000000000000e+00  3.1628426978081531e-01 -8.0307542953024585e-02 0.0000000000000000e+00  7.9007977802064797e-02 -6.9795845910546874e-03 0.0000000000000000e+00  2.3063088560335313e-01 -3.6524647127334734e-04 0.0000000000000000e+00  2.3127950682104165e-01 -4.8885950150473955e-04 0.0000000000000000e+00  2.1892416128196659e-01 -4.3299255031918366e-04 0.0000000000000000e+00  2.2751198667160688e-01 1.5744257070097995e-04 0.0000000000000000e+00  1.2803849182561308e-01 1.9077237697354444e-04 0.0000000000000000e+00  1.3694208902864424e-01 -1.8282172654609854e-04 0.0000000000000000e+00  1.9873407264068105e-01 1.9062339617263169e-01 0.0000000000000000e+00  3.9262768019127307e-02 4.4826408449146316e-02 0.0000000000000000e+00  1.2817554797906736e-01 -1.3337509212221467e-02 0.0000000000000000e+00  2.1970322947455381e-01 -4.8746357407585270e-03 0.0000000000000000e+00  2.0215815630254214e-01 9.6595627964760171e-03 0.0000000000000000e+00  2.2231680598917705e-01 1.7193391645630472e-02 0.0000000000000000e+00  3.0079992188164484e-01 -8.2221029691517428e-02 0.0000000000000000e+00  2.1654443676023619e-01 -4.5076769788183341e-04 0.0000000000000000e+00  8.8657356540373794e-02 6.3935234230198925e-03 0.0000000000000000e+00  2.5462618335864950e-01 6.2900499652460678e-03 0.0000000000000000e+00  3.3332197642841954e-01 -6.0764863202856047e-02 0.0000000000000000e+00  1.3188609291797054e-01 1.7580191605127389e-03 0.0000000000000000e+00  2.1805624118241193e-01 5.2809610986103766e-03 0.0000000000000000e+00  1.3116738828869565e-01 7.4018626545873284e-05 0.0000000000000000e+00  1.6276074149840206e-01 7.6179601855551199e-02 0.0000000000000000e+00  2.4657335967100638e-01 1.3044353065922529e-01 0.0000000000000000e+00  2.1993957184761620e-01 3.1094396176012399e-02 0.0000000000000000e+00  1.5678411877062742e-01 -1.3162418474454689e-02 0.0000000000000000e+00  2.7072747410012948e-01 -3.3363287940004746e-02 0.0000000000000000e+00  2.6026086463074277e-01 -5.0363035602285576e-02 0.0000000000000000e+00  3.9248928874918110e-01 1.7989786447833295e-02 0.0000000000000000e+00  2.2560318947424199e-01 -1.4972023438065370e-02 0.0000000000000000e+00  2.0203752266275776e-01 -3.1801815520368704e-02 0.0000000000000000e+00  3.4056275894942362e-01 1.8375095925550139e-01 0.0000000000000000e+00  2.7765292309364792e-01 3.6397963012544797e-02 0.0000000000000000e+00  2.3157398510496310e-01 7.2348128521273883e-02 0.0000000000000000e+00  2.3137343550853776e-01 4.1469127512653442e-03 0.0000000000000000e+00  2.0037261601344886e-01 -2.5053719060794181e-04 0.0000000000000000e+00  2.2102783476000457e-01 -1.9097170007982106e-04 0.0000000000000000e+00  2.9874769021651332e-01 -3.8658322990883530e-02 0.0000000000000000e+00  1.2562466279386750e-01 2.5510044183160364e-02 0.0000000000000000e+00  8.4422428489353954e-02 8.3682717889344855e-03 0.0000000000000000e+00  2.1009434536601673e-01 2.1557785131542342e-02 0.0000000000000000e+00  1.5812148233256568e-01 4.9343020711260344e-02 0.0000000000000000e+00  2.5078654667516947e-01 -2.0309992480091101e-02 0.0000000000000000e+00  1.5014067376305526e-01 -9.5552087960368917e-03 0.0000000000000000e+00  4.2899335908971353e-02 -8.6798100399807371e-03 0.0000000000000000e+00  4.6281979427525677e-01 4.2982411000209414e-02 0.0000000000000000e+00  1.0918603558227888e-01 -8.0227043159494533e-04 0.0000000000000000e+00  3.4711315197214926e-01 -2.6618175449047751e-02 0.0000000000000000e+00  2.0506947043337606e-01 -2.4149730478005172e-04 0.0000000000000000e+00  2.3760512942133277e-01 -1.1927603990094260e-02 0.0000000000000000e+00  1.7876931687660211e-01 2.4521241441597837e-02 0.0000000000000000e+00  2.1516414708793158e-01 1.6700696724702441e-02 0.0000000000000000e+00  1.6919693252988099e-01 -5.9685396543987156e-02 0.0000000000000000e+00  2.3928463217113130e-02 3.7106739769851484e-03 0.0000000000000000e+00  1.0544231769487465e-01 1.9906075917425969e-03 0.0000000000000000e+00  4.3682100342907690e-03 -8.1893385930043756e-03 0.0000000000000000e+00  9.1187291172212914e-02 9.4215282406651946e-03 0.0000000000000000e+00  6.2794843799688985e-02 1.7629956204805751e-02 0.0000000000000000e+00  1.9861455317312032e-01 -8.5976592883237586e-05 0.0000000000000000e+00  1.0852428597729112e-01 -9.1848807326056083e-05 0.0000000000000000e+00  4.0249513368145889e-01 -4.0116282382282001e-02 0.0000000000000000e+00  2.2486805768914150e-01 9.7727789893519955e-03 0.0000000000000000e+00  2.0764230439347814e-01 4.7760225651869023e-04 0.0000000000000000e+00  3.5785431937009629e-02 8.0809042205385200e-08 0.0000000000000000e+00  7.8401237052965631e-02 1.1915251022750794e-02 0.0000000000000000e+00  1.5902788769768103e-01 4.2051902378545371e-02 0.0000000000000000e+00  2.2564666804699499e-01 2.5469103775920647e-05 0.0000000000000000e+00  2.1658693501543866e-01 1.4174485829693896e-02 0.0000000000000000e+00  1.6434254254811156e-01 -7.4414483401333978e-03 0.0000000000000000e+00  3.2437624841857626e-01 -3.0147637500985217e-02 0.0000000000000000e+00  3.8094899023778134e-01 3.5628111784500906e-02 0.0000000000000000e+00  1.4368183317941818e-01 2.2883887200128980e-03 0.0000000000000000e+00  9.7045884650262773e-02 2.1325846964127511e-03 0.0000000000000000e+00  1.1259921502159279e-01 -5.9759633089282660e-05 0.0000000000000000e+00  -8.0324371485918592e-03 1.4965059110138689e-02 0.0000000000000000e+00  3.3356378567143569e-01 3.4186753016691404e-08 0.0000000000000000e+00  5.9160415530245938e-02 -4.8486800013804166e-04 0.0000000000000000e+00  3.9186078980400796e-01 3.4650633466900482e-03 0.0000000000000000e+00  1.1737982970863239e-01 -1.6615444485331679e-04 0.0000000000000000e+00  3.1746904018808342e-01 -4.4597983891834315e-02 0.0000000000000000e+00  1.1852650625151742e-01 -2.9992472714490892e-08 0.0000000000000000e+00  2.2129797530431469e-01 -1.8907235789109020e-04 0.0000000000000000e+00  1.1218322946900117e-01 -4.3460190121729789e-05 0.0000000000000000e+00  2.1733315141279497e-01 -2.5946357167855967e-08 0.0000000000000000e+00  1.1303526855857630e-01 4.5474092144721933e-04 0.0000000000000000e+00  1.6461587540391268e-01 8.9982121895837344e-03 0.0000000000000000e+00  2.2724621010353119e-01 -3.0187713563973098e-04 0.0000000000000000e+00  3.2563384041785826e-02 -1.7056517277417270e-02 0.0000000000000000e+00  6.5339293067942325e-02 -1.2327447918990561e-02 0.0000000000000000e+00  1.8523750026924246e-01 -5.4591919763882855e-02 0.0000000000000000e+00  -5.7111969659065665e-03 4.7190430544466000e-03 0.0000000000000000e+00  3.1299576407587842e-01 -1.6515471283008853e-02 0.0000000000000000e+00  2.8592183162208690e-01 -1.7212782015123988e-02 0.0000000000000000e+00  4.0914821353655756e-01 -4.6240325700749915e-02 0.0000000000000000e+00  1.1984621066079648e-01 3.6029709305666147e-03 0.0000000000000000e+00  2.7480097169207579e-01 -3.3633442606584990e-02 0.0000000000000000e+00  2.7970936255086432e-01 -1.6732167857984537e-02 0.0000000000000000e+00  1.9215421681662986e-01 -3.6572917591599598e-04 0.0000000000000000e+00  2.0819592401152284e-01 -5.1881926337870692e-02 0.0000000000000000e+00  8.4547245508421354e-02 -8.9027080376507980e-05 0.0000000000000000e+00  1.8623546526412629e-01 -7.8128089955446720e-03 0.0000000000000000e+00  3.2