<?xml version="1.0"?>
<VTKFile type="UnstructuredGrid"  version="0.1"  >
<UnstructuredGrid>
<Piece  NumberOfPoints="1404" NumberOfCells="2604">
<Points>
<DataArray  type="Float64"  NumberOfComponents="3"  format="ascii">0 0.41 0  0 0 0  2.2 0 0  2.2 0.41 0  0.2353553390593274 0.2353553390593274 0  0.25 0.2 0  0.2353553390593274 0.1646446609406726 0  0.2 0.15 0  0.1646446609406726 0.1646446609406726 0  0.15 0.2 0  0.1646446609406726 0.2353553390593274 0  0.2 0.25 0  0.6923879532511287 0.188268343236509 0  0.7 0.15 0  0.6923879532511287 0.1117316567634909 0  0.6707106781186547 0.07928932188134523 0  0.6382683432365089 0.05761204674887133 0  0.6 0.04999999999999999 0  0.5617316567634909 0.05761204674887134 0  0.5292893218813453 0.07928932188134524 0  0.5076120467488713 0.111731656763491 0  0.5 0.15 0  0.5076120467488713 0.188268343236509 0  0.5292893218813453 0.2207106781186547 0  0.561731656763491 0.2423879532511287 0  0.6 0.25 0  0.6382683432365089 0.2423879532511287 0  0.6707106781186547 0.2207106781186547 0  1.1 0 0  0 0.205 0  1.1 0.41 0  0.55 0 0  0.55 0.41 0  0.275 0 0  0.8250000000000001 0 0  0.275 0.41 0  0.8250000000000001 0.41 0  0.6875 0 0  0.61875 0 0  1.65 0.41 0  1.65 0 0  1.375 0 0  1.375 0.41 0  1.925 0 0  1.925 0.41 0  1.5125 0.205 0  1.7875 0.205 0  0.9625000000000001 0.205 0  1.2375 0.205 0  2.2 0.205 0  1.99375 0.2152743902439024 0  0.4125 0.41 0  2.0625 0 0  2.0625 0.41 0  2.2 0.3075 0  1.7875 0.41 0  1.375 0.1486128048780488 0  1.5125 0 0  1.7875 0 0  1.5125 0.41 0  0.9625000000000001 0.41 0  0.4125 0 0  0.1375 0 0  0.1375 0.41 0  0.6875 0.41 0  0.9625000000000001 0 0  1.2375 0 0  1.1 0.1486128048780488 0  1.2375 0.41 0  1.65 0.1486128048780487 0  0.823495464168302 0.2603780552348366 0  0.3738707794507017 0.2720196349488618 0  0.3662291281331582 0.1311456406657909 0  1.676715909090909 0.2793064024390244 0  1.126715909090909 0.2793064024390244 0  1.348284090909091 0.2793064024390244 0  0.8287581077665108 0.1302150898054257 0  1.894702181800738 0.1282910975492754 0  2.092797818199262 0.1282910975492754 0  1.85625 0.3075 0  0 0.3075 0  0 0.1025 0  2.099172119769978 0.25625 0  0.4752414543992246 0.3180372603390748 0  1.99375 0.08395950269330846 0  1.459960956013612 0.3075 0  1.569025960719943 0.2986889805672169 0  1.03125 0.3278689922742084 0  1.959375 0.3126371951219512 0  1.749222215368287 0.1025 0  1.275777784631713 0.1025 0  0.9228016959331474 0.3075 0  1.000777784631713 0.1025 0  2.2 0.1025 0  1.225938124459196 0.3075 0  1.550777784631713 0.1025 0  1.44375 0.07430640243902442 0  1.16875 0.07430640243902439 0  0.7562500000000001 0.3358727844323386 0  0.89375 0 0  1.899250267340833 0.2229966846119207 0  0.61875 0.41 0  1.766482954545455 0.2934032012195123 0  1.046078563095834 0.2389031808701145 0  1.421109702350723 0.2261157654379721 0  0.07567171807980319 0.25625 0  0.2511897295290552 0.3235829392832554 0  0.07655002503762308 0.1488653460959645 0  0.1377245246847496 0.3206030474919778 0  0.6694099692696568 0.3242771941727899 0  0.9168971191497528 0.1295727156104653 0  0.7562500000000001 0 0  2.118919042110979 0.3422084711244843 0  2.13125 0 0  0.06875000000000001 0 0  1.30625 0.41 0  1.597888256393107 0.2173787389261347 0  0.34375 0.41 0  0.2493272016354703 0.08091360081773515 0  0.5588896233436766 0.3264056208677571 0  1.829299675393195 0.07400700849299596 0  0.1334079128307869 0.08523463035786674 0  1.71875 0.41 0  0.06875000000000001 0.41 0  1.16875 0.41 0  2.038220665644273 0.332420740103091 0  0.8810647413215221 0.2027360103977071 0  0.34375 0 0  0.7453891198966415 0.2471459041008237 0  0.42112093004955 0.1988123139090554 0  0.8314023090855964 0.3351170841770613 0  0.89375 0.41 0  0.7906250000000001 0.06615386481594063 0  1.452769549894695 0.1548122580621249 0  1.369219062229598 0.07430640243902442 0  1.30625 0 0  1.07420695807087 0.07430640243902439 0  1.720943423819132 0.1714577452753128 0  1.157188124459196 0.205 0  1.304056576180868 0.1714577452753128 0  1.67579304192913 0.07430640243902437 0  1.209670467133757 0.136210026696477 0  0.4312800784902823 0.08036147352247747 0  0.8723959680194693 0.07066860609690805 0  1.025335513626278 0.1700681449722324 0  0.7945632284247136 0.1940204203251442 0  0.378125 0.3452261501101892 0  0.3307109909790086 0.2037165635083759 0  0.3009701032039409 0.2702970083403109 0  0.20625 0.41 0  1.58125 0 0  0.4812500000000001 0 0  0.9838963872396855 0.2722244191167347 0  0.06772484939107212 0.3260067317374387 0  0.20625 0 0  1.58125 0.41 0  1.631724228912893 0.3381867502687533 0  1.825608881788174 0.14499488549201 0  1.85625 0 0  1.44375 0 0  1.44375 0.41 0  1.85625 0.41 0  2.13125 0.41 0  0.7562500000000001 0.41 0  0.4812500000000001 0.41 0  1.16875 0 0  1.03125 0.41 0  1.03125 0 0  1.71875 0 0  1.99375 0 0  1.99375 0.41 0  0.9408708167433545 0.0651989315768642 0  1.340625 0.3489494290853124 0  1.134375 0.3489494290853123 0  1.700180620188976 0.3438659752031281 0  0.29668452290037 0.1318471691375986 0  0.3175441051360096 0.06496934809856265 0  0.06509151636162461 0.08140814015999148 0  2.135782184673599 0.07126652247502523 0  1.668441847249787 0.2129203728327609 0  1.295782514339747 0.2378437748815763 0  1.409375 0.3520314716057996 0  2.129248544730567 0.1906135162504124 0  2.060771381434487 0.1989445750470348 0  2.013252586573865 0.1496169464686054 0  1.942766402200229 0.1734448904596831 0  1.895522487186454 0.06076163953489683 0  2.069553871656643 0.06605731020975725 0  0.4670911801404742 0.2498408582391372 0  0.7622743084658112 0.1264100838268133 0  1.274680914880868 0.3520219391081363 0  0.3148669572599245 0.3331753056385887 0  1.614713220494657 0.09473434380863296 0  1.72990325744076 0.2380068107952482 0  1.356580098625191 0.2120393231351682 0  2.034370752044885 0.2668681600792073 0  1.51768709249349 0.3426260931494756 0  1.561883724969884 0.1650446847858835 0  1.197344062229598 0.2523725417393646 0  1.804085235518364 0.3468178408964637 0  1.817887819205233 0.2589243285818559 0  1.905897727272727 0.3485060975609756 0  0.7296439733931823 0.06337466644369745 0  0.4250935971865949 0.1394919578475796 0  0.3773030136511669 0.05130372097998036 0  1.192836486056382 0.3562350748565544 0  1.1029124365364 0.226143510831178 0  1.28257088594801 0.2944411014911587 0  0.1905185804731426 0.06029880676029167 0  1.474860187679412 0.2504218616229368 0  1.406767003493824 0.2829282258560709 0  0.5209826960981064 0.2830664557824064 0  0.5131119502780163 0.3617405848213254 0  0.1948220106098172 0.3081993407644811 0  1.845656689180403 0.1998310418452388 0  2.144958525570388 0.2909790873294231 0  2.2 0.15375 0  0.8833025251326762 0.2625402923007629 0  0.171875 0.3653875762360952 0  1.57794966442982 0.3540357145964566 0  0.446875 0.366068291212731 0  0.4272051715206439 0.2891929346190664 0  1.508991196088596 0.1421783375065625 0  1.50436820029908 0.06143401634903343 0  1.223857000523521 0.08235548624535324 0  0.6137904613287555 0.3066826366281556 0  1.153316824384777 0.1289850171317838 0  0.9751573703656133 0.327632618473408 0  2.148922302309752 0.1258841779285271 0  0.9281250000000001 0.3643758685795699 0  1.621993280276081 0.2841214267927899 0  1.550118654119087 0.2461998729100966 0  1.327182649291491 0.1216967252533594 0  0.9939955742738924 0.04663549843168518 0  1.753125 0.04556020050186112 0  1.271875 0.04556020050186116 0  0.9734326767716519 0.1506854560854393 0  0.103125 0.3675775577080512 0  1.94956388244759 0.1180512551534177 0  1.949997712993411 0.04965831614304109 0  0.717433898748555 0.295596016333797 0  1.771961817615021 0.1530278789497521 0  1.909246823951428 0.2812757146784527 0  0 0.35875 0  1.050632804931928 0.1226269704412814 0  0.05695108326502596 0.2024009637347154 0  1.948575539857022 0.2445328248721197 0  1.697271520964565 0.1233917627620729 0  1.065625 0.3689344961371042 0  1.085849084308977 0.3170853572226867 0  0.1015495998772944 0.04226029099983852 0  1.577403511714593 0.05463601888079143 0  1.751571320346033 0.3651102912045228 0  2.2 0.35875 0  0.7441773632462837 0.1786786606458751 0  0 0.05125 0  1.466879772203159 0.3611261772912453 0  0.6282230348858767 0.3577675483994025 0  1.990280163552011 0.3564754268533217 0  1.17471064520912 0.2990917256188288 0  0 0.25625 0  2.2 0.25625 0  2.2 0.05125 0  0 0.15375 0  1.853978576207987 0.35875 0  1.515638456102889 0.2882700110184686 0  2.150453692751374 0.2387066338105111 0  1.323782677156475 0.04897634338873398 0  1.409375 0.03715320121951221 0  1.406484531114799 0.1087852750766809 0  1.134375 0.03715320121951219 0  0.721875 0.3729363922161693 0  0.7941695928236929 0.3696489254637395 0  0.7934827162619036 0.3013409431456604 0  1.627401732573545 0.04552157221025036 0  0.9352049974617431 0.2507047965699472 0  0.8763260682738339 0.3611103317460093 0  2.045405893604797 0.1105340662939892 0  1.255408269734577 0.1577307500159216 0  2.028125 0.03707597992059326 0  1.003030137506755 0.3689344961371042 0  1.248258025468107 0.2565907092181813 0  1.203125 0.03661323374043041 0  0.4800125512335631 0.0549472816999725 0  2.072662025974815 0.2975086504196739 0  0.240625 0.3729825336867542 0  1.113252391110535 0.10238286244357 0  1.071052763974265 0.1885202618768825 0  0.8738809401657862 0.3106483608284829 0  0.6786819423003397 0.2677558482644021 0  1.887722846421017 0.1760882698830035 0  1.472640588990488 0.1118278026240017 0  0.5843750000000001 0.41 0  1.865937103925594 0.2604137786483804 0  1.463913572748262 0.2030442564990043 0  1.376426316059077 0.3186741374914345 0  0.1038643885363755 0.2162701735320032 0  0.1769473813227781 0.1070849728467114 0  0.458787839809176 0.171541653775316 0  0.240625 0 0  0.04179569703428024 0.2877217852556549 0  0.1258346557601885 0.2699740073054968 0  1.722140693354707 0.282908100935778 0  0.41206179117512 0.2448172567039922 0  0.3702471778075604 0.2265217604228704 0  0.3714881805374215 0.1786967818665642 0  1.77397096061971 0.2481483237422926 0  2.105123889160691 0.03743885948498647 0  1.001138337938679 0.229719337663998 0  1.051242910646791 0.2854826559431138 0  1.395420985247586 0.18
[...]
<PointData  Vectors="f_37"> 
<DataArray  type="Float64"  Name="f_37"  NumberOfComponents="3" format="ascii">2.4944826733985589e-07 4.5574034998761283e-08 0.0000000000000000e+00  -4.4489252059820726e-06 -3.5352215022903874e-07 0.0000000000000000e+00  -6.4351726426355219e-07 3.6922635684965056e-09 0.0000000000000000e+00  -7.9761223590581207e-07 9.2666186973401495e-10 0.0000000000000000e+00  -5.9835380746074820e-08 3.1354519684280005e-07 0.0000000000000000e+00  1.1584659362456672e-07 -5.8107809823922740e-08 0.0000000000000000e+00  1.2767409207929488e-07 1.6849519774372299e-07 0.0000000000000000e+00  -9.1091798729416349e-07 -1.0086905386698097e-07 0.0000000000000000e+00  -8.6123583476101789e-07 -1.2947416829763421e-07 0.0000000000000000e+00  1.2982943108684570e-07 -4.5048675152470337e-07 0.0000000000000000e+00  -9.3378073883211169e-07 -5.2378799353739193e-07 0.0000000000000000e+00  -1.0693668200914234e-06 -2.5399289539102480e-07 0.0000000000000000e+00  4.2487308415451452e-07 -9.6801747234377052e-08 0.0000000000000000e+00  -3.3786352336902410e-07 -4.9550935580643499e-07 0.0000000000000000e+00  -3.8725711969708712e-07 -9.7493266843387619e-08 0.0000000000000000e+00  -8.9339676568886755e-07 -1.9400190376413202e-07 0.0000000000000000e+00  2.3934102495599634e-06 4.2234133407728962e-07 0.0000000000000000e+00  3.4753311240250417e-01 9.6689081591973869e-02 0.0000000000000000e+00  1.6749958150691552e-06 -5.6329252122429747e-08 0.0000000000000000e+00  -1.1369726187668597e-06 3.8628855769499388e-07 0.0000000000000000e+00  -1.2878284232086990e-06 -4.2054132329212437e-07 0.0000000000000000e+00  -6.7967798292102434e-08 -5.8732009658243089e-07 0.0000000000000000e+00  4.5500839529429042e-07 5.2874285145011897e-08 0.0000000000000000e+00  -4.4745658835971612e-07 -1.8007154019301839e-06 0.0000000000000000e+00  -3.1166919233661958e-06 -1.6021707930648752e-06 0.0000000000000000e+00  -4.5554086036679012e-06 -4.2807584522018909e-07 0.0000000000000000e+00  -4.4925563016971333e-06 -1.2422126829511835e-07 0.0000000000000000e+00  -3.0239317342988052e-07 7.7169131357400741e-08 0.0000000000000000e+00  -2.7376284985840063e-09 4.1647036128929632e-08 0.0000000000000000e+00  1.6583342853722549e-01 -4.3200270745829737e-07 0.0000000000000000e+00  -9.8970835182518705e-07 -7.2230786061687303e-08 0.0000000000000000e+00  3.0731147806827535e-06 1.0243396012711598e-07 0.0000000000000000e+00  -5.5757944205600088e-07 -8.6234730499528420e-08 0.0000000000000000e+00  4.1870209582513809e-07 4.4938640062229334e-08 0.0000000000000000e+00  -2.1320806221784901e-07 -4.6627020003527473e-08 0.0000000000000000e+00  -1.0266608232098748e-06 4.4714136490029573e-09 0.0000000000000000e+00  -1.4826648666869956e-06 7.4834408615144236e-08 0.0000000000000000e+00  -2.5761152961083234e-06 -4.7453536618672686e-07 0.0000000000000000e+00  -8.7405651192654745e-06 -1.1572861874861371e-06 0.0000000000000000e+00  -1.6044791759027991e-06 -2.2426385080623027e-07 0.0000000000000000e+00  -1.1570324161958155e-06 -3.9074215169949070e-08 0.0000000000000000e+00  -8.7620514684624415e-07 5.8559082974309549e-08 0.0000000000000000e+00  4.6793300978546624e-07 2.0667777280094103e-07 0.0000000000000000e+00  -4.9037502460615491e-07 -2.9923657609252183e-09 0.0000000000000000e+00  -4.4657751267840565e-08 -1.2029977438014819e-09 0.0000000000000000e+00  2.5963785534206940e-01 -1.0827475296801170e-02 0.0000000000000000e+00  2.3157634943552902e-01 1.0632460539857285e-02 0.0000000000000000e+00  1.5336575307790340e-01 -1.2007849046383575e-02 0.0000000000000000e+00  2.8425962338926408e-01 -6.2571582912966703e-02 0.0000000000000000e+00  2.3166074508037571e-01 -2.3945582998226978e-04 0.0000000000000000e+00  2.3131518617220892e-01 -3.7614460477359646e-04 0.0000000000000000e+00  2.7125978614331758e-07 3.5146129240861199e-09 0.0000000000000000e+00  1.2976130295395339e-07 1.3627520069320627e-09 0.0000000000000000e+00  -4.9317818599195219e-07 4.6531671301698965e-09 0.0000000000000000e+00  1.8508658759965482e-01 -1.4835529447989731e-04 0.0000000000000000e+00  -1.0997404789456118e-06 -7.2434877965094428e-08 0.0000000000000000e+00  2.3968782383097434e-01 -7.5032043500555812e-02 0.0000000000000000e+00  -2.6427620068414234e-06 3.8258897059379869e-07 0.0000000000000000e+00  -7.3624329567747979e-07 -6.2903131816447954e-08 0.0000000000000000e+00  7.8273549642340355e-07 1.9220280590908949e-07 0.0000000000000000e+00  -2.7436284112105256e-07 -1.4508229212441453e-08 0.0000000000000000e+00  -3.5128604934655922e-07 -8.8625731227635571e-08 0.0000000000000000e+00  -8.5491411420310793e-07 -6.9379050710929283e-08 0.0000000000000000e+00  -3.7859264791125882e-07 -6.0775530545164702e-08 0.0000000000000000e+00  -2.3868118584939686e-06 5.3011376765335552e-08 0.0000000000000000e+00  -4.8602839526964666e-07 8.2236347846445024e-08 0.0000000000000000e+00  2.1606410633989264e-06 -5.3644384932955288e-07 0.0000000000000000e+00  1.2344677351865320e-01 2.7128680171306474e-03 0.0000000000000000e+00  -3.3868664907811369e-07 -6.5825106907248105e-08 0.0000000000000000e+00  2.3772993507645226e-01 1.9617018835186746e-02 0.0000000000000000e+00  2.6539765790763081e-01 -3.8488651487045375e-02 0.0000000000000000e+00  1.0600291790255087e-01 5.0415888229475795e-03 0.0000000000000000e+00  3.0493425665746976e-01 1.0648439575076965e-01 0.0000000000000000e+00  1.9105106782342082e-01 2.1722541091165590e-02 0.0000000000000000e+00  3.4851098059023777e-01 -4.4221461156618395e-02 0.0000000000000000e+00  2.4552562680930062e-01 -5.1698576274837829e-02 0.0000000000000000e+00  6.7153868373055092e-02 4.4732422723309767e-02 0.0000000000000000e+00  2.0691126450431951e-01 1.0465160211642658e-03 0.0000000000000000e+00  2.0665357751946331e-01 -3.8472631736751053e-04 0.0000000000000000e+00  1.8462045455062731e-01 1.6540163522756762e-03 0.0000000000000000e+00  7.5234905763530827e-02 4.3066251531633930e-08 0.0000000000000000e+00  2.7319254085471140e-01 2.0180660080831227e-08 0.0000000000000000e+00  2.2154341777243319e-01 -4.3162272655091188e-04 0.0000000000000000e+00  2.4044800436251756e-01 7.2501729324489173e-02 0.0000000000000000e+00  1.6228819012693113e-01 -2.7351862395139781e-04 0.0000000000000000e+00  1.4241437522825348e-01 -7.7953205254827334e-03 0.0000000000000000e+00  1.5298593024236723e-01 1.8863385661203758e-02 0.0000000000000000e+00  3.2281164084800185e-01 -2.4553622233009047e-02 0.0000000000000000e+00  1.8025531174389947e-01 -2.1904076180587654e-04 0.0000000000000000e+00  1.9215711265189611e-01 8.0156222383182263e-03 0.0000000000000000e+00  1.0094206461657461e-01 -3.1984403781529031e-02 0.0000000000000000e+00  3.9091617146876045e-01 -3.7395849564919398e-02 0.0000000000000000e+00  5.8956569766927959e-02 1.1130702141276184e-02 0.0000000000000000e+00  1.8459085398335937e-01 -1.3915564431381158e-04 0.0000000000000000e+00  2.7358090642162453e-01 -4.2168476963382405e-02 0.0000000000000000e+00  2.1467377349550085e-01 -4.2831554886911868e-03 0.0000000000000000e+00  1.4489513579525934e-01 -2.9737659698824342e-02 0.0000000000000000e+00  2.2200167067441046e-02 5.7377046496713234e-03 0.0000000000000000e+00  4.2697610320458601e-01 -3.5978133758942869e-02 0.0000000000000000e+00  -3.7501740713126109e-07 -5.7427708635952100e-09 0.0000000000000000e+00  2.3030834819806778e-01 1.4619562309466133e-03 0.0000000000000000e+00  -9.6294659489662139e-07 3.7949082298084674e-09 0.0000000000000000e+00  1.9214512616028773e-01 8.5309417464600502e-03 0.0000000000000000e+00  2.7892394215252087e-01 -3.2034490739346638e-02 0.0000000000000000e+00  2.7512406825755326e-01 -5.5047595433901704e-02 0.0000000000000000e+00  1.2570046449559250e-01 7.1216423899302758e-02 0.0000000000000000e+00  2.3111759608545301e-01 1.4783863578020530e-02 0.0000000000000000e+00  2.0877792567439266e-01 2.4419382427479749e-02 0.0000000000000000e+00  1.4758837611567452e-01 7.3981814299415735e-02 0.0000000000000000e+00  4.5670930515428881e-01 -1.3405765464741363e-02 0.0000000000000000e+00  7.5641006092811186e-02 1.9380000442493828e-02 0.0000000000000000e+00  -2.1026004656309269e-07 -1.0791161550143996e-07 0.0000000000000000e+00  1.4054145690512915e-01 -1.6528227706709945e-04 0.0000000000000000e+00  -1.6034560415265695e-06 3.3027053796378878e-09 0.0000000000000000e+00  -1.2975554657509400e-06 8.7520269806643867e-09 0.0000000000000000e+00  -1.9454977136003087e-07 -3.6408548281170099e-08 0.0000000000000000e+00  2.3525028100343409e-01 2.4065854974737934e-02 0.0000000000000000e+00  -1.8926022159221815e-06 -1.4142491113110960e-08 0.0000000000000000e+00  4.0381304274954277e-01 4.2372968852142610e-02 0.0000000000000000e+00  3.7429738026082132e-01 7.7558247574294290e-02 0.0000000000000000e+00  1.5008122468009519e-01 1.7035207951120006e-03 0.0000000000000000e+00  3.4357393456928659e-01 1.3149615551871979e-02 0.0000000000000000e+00  -1.6258034362672937e-06 -1.7172399947652362e-07 0.0000000000000000e+00  -8.5326875678360951e-08 -1.1087261739574207e-08 0.0000000000000000e+00  -6.4921330165750587e-07 -5.8671646700981231e-08 0.0000000000000000e+00  1.5531284213278704e-01 -2.8634301151242669e-04 0.0000000000000000e+00  9.9341829376774549e-02 -3.0300324865292628e-03 0.0000000000000000e+00  -2.8872590459655391e-07 -9.7225347613842792e-08 0.0000000000000000e+00  1.4611358720868400e-01 -2.4204197093558144e-02 0.0000000000000000e+00  1.5541275096945878e-01 1.4945799682951230e-01 0.0000000000000000e+00  3.9614268446262002e-01 -3.4788522437286806e-02 0.0000000000000000e+00  1.9208780678188101e-06 -7.5669894826342276e-08 0.0000000000000000e+00  1.1655048749428376e-01 4.7026969062347594e-02 0.0000000000000000e+00  2.6143128956742184e-01 -5.2326833882008206e-02 0.0000000000000000e+00  9.9305408174111515e-02 -3.6402897708794200e-02 0.0000000000000000e+00  1.4523609169303964e-06 -4.3617239108202430e-07 0.0000000000000000e+00  2.8755259453493595e-02 1.0832440624020116e-02 0.0000000000000000e+00  2.3399054705299319e-01 1.8255855411514515e-02 0.0000000000000000e+00  2.4985860836062512e-01 -3.4892283246425654e-02 0.0000000000000000e+00  2.5343696407571420e-01 -7.3850717783990133e-02 0.0000000000000000e+00  1.6608619190607762e-01 7.9191811879836191e-03 0.0000000000000000e+00  1.4247577219809665e-01 -2.0443257064928302e-02 0.0000000000000000e+00  2.3883499019920129e-01 2.5114578447517036e-02 0.0000000000000000e+00  6.7237268598333899e-02 1.7277611466411009e-02 0.0000000000000000e+00  1.2582737882684297e-01 7.6513709831412576e-06 0.0000000000000000e+00  2.3231367120647630e-02 9.8732592933066382e-03 0.0000000000000000e+00  2.1176258562894551e-01 7.7406588952548339e-03 0.0000000000000000e+00  3.5782851733105935e-02 1.5481148034625726e-02 0.0000000000000000e+00  1.0144225011882942e-01 -2.0250982153818330e-02 0.0000000000000000e+00  -9.3421013143560554e-07 -1.1143141703493330e-07 0.0000000000000000e+00  -8.8406805440753157e-07 1.2813492416494780e-07 0.0000000000000000e+00  -6.2311989984695226e-07 3.8344826070661399e-07 0.0000000000000000e+00  3.4621107879483404e-01 -3.7803532014509422e-02 0.0000000000000000e+00  7.8051238872640996e-02 3.1250682561204210e-02 0.0000000000000000e+00  -2.2484225971081899e-06 -1.0605993727060791e-07 0.0000000000000000e+00  -5.7781486823897016e-07 -9.7416438951096852e-08 0.0000000000000000e+00  1.1823347989424977e-01 1.2144610031261036e-02 0.0000000000000000e+00  2.1889758123007086e-01 5.0000626629033117e-03 0.0000000000000000e+00  -6.1542543407690414e-07 -2.3724302992449332e-08 0.0000000000000000e+00  -2.8438935306086271e-06 4.8605636280180307e-07 0.0000000000000000e+00  7.9136592152009602e-07 3.5125250456797911e-07 0.0000000000000000e+00  -2.3463550097459208e-07 -1.6138827044568347e-08 0.0000000000000000e+00  -6.5702696735179598e-08 2.7428756106737825e-09 0.0000000000000000e+00  3.7252498958396103e-07 -3.1699399022659411e-08 0.0000000000000000e+00  -2.2382949614580543e-06 -2.6228488784998060e-07 0.0000000000000000e+00  1.1992984531550054e-06 -2.0117882432285603e-07 0.0000000000000000e+00  3.2474655844258627e-08 -3.0782142601588041e-08 0.0000000000000000e+00  -2.8735565956579612e-07 1.6313032937816912e-07 0.0000000000000000e+00  5.3651139191287133e-07 -7.5796802680633891e-08 0.0000000000000000e+00  -8.9679963520759399e-07 3.0259320453153204e-09 0.0000000000000000e+00  -2.4872401909815628e-07 2.5934249040501197e-09 0.0000000000000000e+00  4.3751681314499177e-02 6.3331653869606389e-03 0.0000000000000000e+00  1.0732897023912590e-01 -1.2404916182397864e-02 0.0000000000000000e+00  2.1054035314053882e-01 -1.6166114942852156e-02 0.0000000000000000e+00  1.2515016574006996e-01 7.2846932736498641e-03 0.0000000000000000e+00  2.9150119063319835e-01 7.5758916678370966e-02 0.0000000000000000e+00  3.3739408109748598e-01 5.3522908935895272e-02 0.0000000000000000e+00  3.1540648334625571e-01 2.6283961083772307e-02 0.0000000000000000e+00  1.4501431718691835e-01 -1.4720495028805773e-04 0.0000000000000000e+00  2.3189422072240026e-01 2.6569248750771275e-02 0.0000000000000000e+00  3.1672762884674338e-01 -7.9165758677813808e-02 0.0000000000000000e+00  8.0055249079617349e-02 -7.4280217202794159e-03 0.0000000000000000e+00  2.3081624836343881e-01 -3.9672565239549815e-04 0.0000000000000000e+00  2.3147273382930400e-01 -5.2651447029777279e-04 0.0000000000000000e+00  2.1898817795311723e-01 -4.5776034634881598e-04 0.0000000000000000e+00  2.2766523847821926e-01 2.1429835212721335e-04 0.0000000000000000e+00  1.2787121026283479e-01 2.3007024372642362e-04 0.0000000000000000e+00  1.3676794330664163e-01 -1.9712149456232577e-04 0.0000000000000000e+00  1.9874664147930088e-01 1.9061772356058412e-01 0.0000000000000000e+00  3.9201254078111036e-02 4.4836538124413933e-02 0.0000000000000000e+00  1.3005189295005384e-01 -1.3305077842401916e-02 0.0000000000000000e+00  2.1970437791639336e-01 -4.8785673300309525e-03 0.0000000000000000e+00  2.0310316361490735e-01 9.2189594180714443e-03 0.0000000000000000e+00  2.2213015543475437e-01 1.8392423110267887e-02 0.0000000000000000e+00  3.0131573387773608e-01 -8.2353515069762268e-02 0.0000000000000000e+00  2.1665239805695283e-01 -4.8257106783533381e-04 0.0000000000000000e+00  8.7658350641500085e-02 5.5657996183660899e-03 0.0000000000000000e+00  2.5595882203506393e-01 4.2697532452368250e-03 0.0000000000000000e+00  3.3269510288413640e-01 -5.9149632210528311e-02 0.0000000000000000e+00  1.3154899403344264e-01 1.9528905055949280e-03 0.0000000000000000e+00  2.1792999196930066e-01 5.8600016447988706e-03 0.0000000000000000e+00  1.3108958798472636e-01 1.0261298734853371e-04 0.0000000000000000e+00  1.6274900205630205e-01 7.6168541325082870e-02 0.0000000000000000e+00  2.4657239697493530e-01 1.3044144874566527e-01 0.0000000000000000e+00  2.1994135275387974e-01 3.1094184217607967e-02 0.0000000000000000e+00  1.5816135477550652e-01 -1.2997887758375697e-02 0.0000000000000000e+00  2.6969603058594882e-01 -3.2905142440731484e-02 0.0000000000000000e+00  2.6268218124412207e-01 -5.0058113261957540e-02 0.0000000000000000e+00  3.9248617146440101e-01 1.7990259276881995e-02 0.0000000000000000e+00  2.2696982195728238e-01 -1.7761785602787700e-02 0.0000000000000000e+00  2.0412255922161876e-01 -3.3363600403964175e-02 0.0000000000000000e+00  3.4057982668079689e-01 1.8376509961600240e-01 0.0000000000000000e+00  2.7763683902391312e-01 3.6398746306367261e-02 0.0000000000000000e+00  2.3157685080228307e-01 7.2347121971170728e-02 0.0000000000000000e+00  2.3158460646055368e-01 4.6218341764756535e-03 0.0000000000000000e+00  2.0038452026108794e-01 -2.7117595155304493e-04 0.0000000000000000e+00  2.2112707884289887e-01 -2.0833173268609693e-04 0.0000000000000000e+00  2.9881347390586704e-01 -3.8677156848811928e-02 0.0000000000000000e+00  1.2562873115031525e-01 2.5510160032040607e-02 0.0000000000000000e+00  8.2725050237825282e-02 8.1770959336008656e-03 0.0000000000000000e+00  2.1008378705296274e-01 2.1557324823388260e-02 0.0000000000000000e+00  1.5812737825033668e-01 4.9330502771956414e-02 0.0000000000000000e+00  2.5130711242192116e-01 -2.2919798342930096e-02 0.0000000000000000e+00  1.4897492855415703e-01 -1.0634599957466989e-02 0.0000000000000000e+00  4.2691680329950472e-02 -7.4239505561234931e-03 0.0000000000000000e+00  4.6283685254631135e-01 4.3014576625628381e-02 0.0000000000000000e+00  1.0871466040694323e-01 -1.6513485348560703e-04 0.0000000000000000e+00  3.4715965305885416e-01 -2.6590842757499199e-02 0.0000000000000000e+00  2.0506206878435196e-01 -2.6285132956072971e-04 0.0000000000000000e+00  2.3768618393484708e-01 -1.1934679178163937e-02 0.0000000000000000e+00  1.7748836198183640e-01 2.4697192438444582e-02 0.0000000000000000e+00  2.1562852963442991e-01 1.4718770560451983e-02 0.0000000000000000e+00  1.6737531350142257e-01 -5.7983622372858742e-02 0.0000000000000000e+00  2.4402154207999311e-02 3.5000477329195389e-03 0.0000000000000000e+00  1.0571207912072605e-01 2.1320634794043279e-03 0.0000000000000000e+00  3.5727856680044302e-03 -7.4167555181938712e-03 0.0000000000000000e+00  9.0828967273639469e-02 8.9710222693774842e-03 0.0000000000000000e+00  6.2796922931388180e-02 1.7631337497063485e-02 0.0000000000000000e+00  1.9855831492678952e-01 -6.4798387621965448e-05 0.0000000000000000e+00  1.0833303712487509e-01 -8.9513592466791605e-05 0.0000000000000000e+00  4.0247651950963431e-01 -4.0065264448035771e-02 0.0000000000000000e+00  2.2541045999730874e-01 1.0572156552013445e-02 0.0000000000000000e+00  2.0766859961288062e-01 5.7217906594488207e-04 0.0000000000000000e+00  3.5785432092743423e-02 8.0799911486860208e-08 0.0000000000000000e+00  7.8393896433717719e-02 1.1346927199753653e-02 0.0000000000000000e+00  1.5902787059392992e-01 4.2054079196404123e-02 0.0000000000000000e+00  2.2579983824556646e-01 6.5216196358139703e-05 0.0000000000000000e+00  2.1760296372720525e-01 1.4768401901623462e-02 0.0000000000000000e+00  1.6465959995563476e-01 -7.3381924618849629e-03 0.0000000000000000e+00  3.2455715825575371e-01 -2.9686034920318162e-02 0.0000000000000000e+00  3.8094784788762015e-01 3.5628873284984916e-02 0.0000000000000000e+00  1.4407477532244431e-01 1.8254916892445647e-03 0.0000000000000000e+00  9.6475805039054383e-02 2.3195828889702626e-03 0.0000000000000000e+00  1.1248819132644493e-01 -6.4044381654727419e-05 0.0000000000000000e+00  -8.0375323137303716e-03 1.5055581757233285e-02 0.0000000000000000e+00  3.3356378522177826e-01 3.3952118353802390e-08 0.0000000000000000e+00  5.9136881882452343e-02 -1.0502567309898950e-03 0.0000000000000000e+00  3.9186872694070501e-01 3.4849619006197697e-03 0.0000000000000000e+00  1.1731745669740598e-01 -1.7413402284963868e-04 0.0000000000000000e+00  3.1816271875491658e-01 -4.3631786650722086e-02 0.0000000000000000e+00  1.1852650632941709e-01 -3.0306429092490586e-08 0.0000000000000000e+00  2.2141721909356385e-01 -2.0650551704045692e-04 0.0000000000000000e+00  1.1204069733545792e-01 -4.7627400143377000e-05 0.0000000000000000e+00  2.1733315163068390e-01 -2.6353862718789996e-08 0.0000000000000000e+00  1.1289338105818483e-01 5.2157141551282746e-04 0.0000000000000000e+00  1.6456780509973465e-01 7.0675286730335811e-03 0.0000000000000000e+00  2.2741364893004185e-01 -3.2853144725764890e-04 0.0000000000000000e+00  3.0536976940505792e-02 -1.6308323797282011e-02 0.0000000000000000e+00  6.2798550877798801e-02 -1.2437902483500345e-02 0.0000000000000000e+00  1.8331509624538331e-01 -5.5012549522359649e-02 0.0000000000000000e+00  -4.4614215025446380e-03 4.6594457808432233e-03 0.0000000000000000e+00  3.1307089166294394e-01 -1.6502429965119820e-02 0.0000000000000000e+00  2.8603558179961325e-01 -1.7209043830632310e-02 0.0000000000000000e+00  4.0917933618540925e-01 -4.6196717378091535e-02 0.0000000000000000e+00  1.2058604647802380e-01 3.5504051735468574e-03 0.0000000000000000e+00  2.7485446948231712e-01 -3.3732033973571537e-02 0.0000000000000000e+00  2.7982048393570108e-01 -1.6746970447017590e-02 0.0000000000000000e+00  1.9206874625730178e-01 -3.9234444850213949e-04 0.0000000000000000e+00  2.0651786294117766e-01 -4.9526958770037724e-02 0.0000000000000000e+00  8.4390333247181759e-02 -9.4878729505075998e-05 0.0000000000000000e+00  1.8635131721506337e-01 -7.7713819301519814e-03 0.0000000000000000e+00  3.