<?xml version="1.0"?>
<VTKFile type="UnstructuredGrid"  version="0.1"  >
<UnstructuredGrid>
<Piece  NumberOfPoints="1404" NumberOfCells="2604">
<Points>
<DataArray  type="Float64"  NumberOfComponents="3"  format="ascii">0 0.41 0  0 0 0  2.2 0 0  2.2 0.41 0  0.2353553390593274 0.2353553390593274 0  0.25 0.2 0  0.2353553390593274 0.1646446609406726 0  0.2 0.15 0  0.1646446609406726 0.1646446609406726 0  0.15 0.2 0  0.1646446609406726 0.2353553390593274 0  0.2 0.25 0  0.6923879532511287 0.188268343236509 0  0.7 0.15 0  0.6923879532511287 0.1117316567634909 0  0.6707106781186547 0.07928932188134523 0  0.6382683432365089 0.05761204674887133 0  0.6 0.04999999999999999 0  0.5617316567634909 0.05761204674887134 0  0.5292893218813453 0.07928932188134524 0  0.5076120467488713 0.111731656763491 0  0.5 0.15 0  0.5076120467488713 0.188268343236509 0  0.5292893218813453 0.2207106781186547 0  0.561731656763491 0.2423879532511287 0  0.6 0.25 0  0.6382683432365089 0.2423879532511287 0  0.6707106781186547 0.2207106781186547 0  1.1 0 0  0 0.205 0  1.1 0.41 0  0.55 0 0  0.55 0.41 0  0.275 0 0  0.8250000000000001 0 0  0.275 0.41 0  0.8250000000000001 0.41 0  0.6875 0 0  0.61875 0 0  1.65 0.41 0  1.65 0 0  1.375 0 0  1.375 0.41 0  1.925 0 0  1.925 0.41 0  1.5125 0.205 0  1.7875 0.205 0  0.9625000000000001 0.205 0  1.2375 0.205 0  2.2 0.205 0  1.99375 0.2152743902439024 0  0.4125 0.41 0  2.0625 0 0  2.0625 0.41 0  2.2 0.3075 0  1.7875 0.41 0  1.375 0.1486128048780488 0  1.5125 0 0  1.7875 0 0  1.5125 0.41 0  0.9625000000000001 0.41 0  0.4125 0 0  0.1375 0 0  0.1375 0.41 0  0.6875 0.41 0  0.9625000000000001 0 0  1.2375 0 0  1.1 0.1486128048780488 0  1.2375 0.41 0  1.65 0.1486128048780487 0  0.823495464168302 0.2603780552348366 0  0.3738707794507017 0.2720196349488618 0  0.3662291281331582 0.1311456406657909 0  1.676715909090909 0.2793064024390244 0  1.126715909090909 0.2793064024390244 0  1.348284090909091 0.2793064024390244 0  0.8287581077665108 0.1302150898054257 0  1.894702181800738 0.1282910975492754 0  2.092797818199262 0.1282910975492754 0  1.85625 0.3075 0  0 0.3075 0  0 0.1025 0  2.099172119769978 0.25625 0  0.4752414543992246 0.3180372603390748 0  1.99375 0.08395950269330846 0  1.459960956013612 0.3075 0  1.569025960719943 0.2986889805672169 0  1.03125 0.3278689922742084 0  1.959375 0.3126371951219512 0  1.749222215368287 0.1025 0  1.275777784631713 0.1025 0  0.9228016959331474 0.3075 0  1.000777784631713 0.1025 0  2.2 0.1025 0  1.225938124459196 0.3075 0  1.550777784631713 0.1025 0  1.44375 0.07430640243902442 0  1.16875 0.07430640243902439 0  0.7562500000000001 0.3358727844323386 0  0.89375 0 0  1.899250267340833 0.2229966846119207 0  0.61875 0.41 0  1.766482954545455 0.2934032012195123 0  1.046078563095834 0.2389031808701145 0  1.421109702350723 0.2261157654379721 0  0.07567171807980319 0.25625 0  0.2511897295290552 0.3235829392832554 0  0.07655002503762308 0.1488653460959645 0  0.1377245246847496 0.3206030474919778 0  0.6694099692696568 0.3242771941727899 0  0.9168971191497528 0.1295727156104653 0  0.7562500000000001 0 0  2.118919042110979 0.3422084711244843 0  2.13125 0 0  0.06875000000000001 0 0  1.30625 0.41 0  1.597888256393107 0.2173787389261347 0  0.34375 0.41 0  0.2493272016354703 0.08091360081773515 0  0.5588896233436766 0.3264056208677571 0  1.829299675393195 0.07400700849299596 0  0.1334079128307869 0.08523463035786674 0  1.71875 0.41 0  0.06875000000000001 0.41 0  1.16875 0.41 0  2.038220665644273 0.332420740103091 0  0.8810647413215221 0.2027360103977071 0  0.34375 0 0  0.7453891198966415 0.2471459041008237 0  0.42112093004955 0.1988123139090554 0  0.8314023090855964 0.3351170841770613 0  0.89375 0.41 0  0.7906250000000001 0.06615386481594063 0  1.452769549894695 0.1548122580621249 0  1.369219062229598 0.07430640243902442 0  1.30625 0 0  1.07420695807087 0.07430640243902439 0  1.720943423819132 0.1714577452753128 0  1.157188124459196 0.205 0  1.304056576180868 0.1714577452753128 0  1.67579304192913 0.07430640243902437 0  1.209670467133757 0.136210026696477 0  0.4312800784902823 0.08036147352247747 0  0.8723959680194693 0.07066860609690805 0  1.025335513626278 0.1700681449722324 0  0.7945632284247136 0.1940204203251442 0  0.378125 0.3452261501101892 0  0.3307109909790086 0.2037165635083759 0  0.3009701032039409 0.2702970083403109 0  0.20625 0.41 0  1.58125 0 0  0.4812500000000001 0 0  0.9838963872396855 0.2722244191167347 0  0.06772484939107212 0.3260067317374387 0  0.20625 0 0  1.58125 0.41 0  1.631724228912893 0.3381867502687533 0  1.825608881788174 0.14499488549201 0  1.85625 0 0  1.44375 0 0  1.44375 0.41 0  1.85625 0.41 0  2.13125 0.41 0  0.7562500000000001 0.41 0  0.4812500000000001 0.41 0  1.16875 0 0  1.03125 0.41 0  1.03125 0 0  1.71875 0 0  1.99375 0 0  1.99375 0.41 0  0.9408708167433545 0.0651989315768642 0  1.340625 0.3489494290853124 0  1.134375 0.3489494290853123 0  1.700180620188976 0.3438659752031281 0  0.29668452290037 0.1318471691375986 0  0.3175441051360096 0.06496934809856265 0  0.06509151636162461 0.08140814015999148 0  2.135782184673599 0.07126652247502523 0  1.668441847249787 0.2129203728327609 0  1.295782514339747 0.2378437748815763 0  1.409375 0.3520314716057996 0  2.129248544730567 0.1906135162504124 0  2.060771381434487 0.1989445750470348 0  2.013252586573865 0.1496169464686054 0  1.942766402200229 0.1734448904596831 0  1.895522487186454 0.06076163953489683 0  2.069553871656643 0.06605731020975725 0  0.4670911801404742 0.2498408582391372 0  0.7622743084658112 0.1264100838268133 0  1.274680914880868 0.3520219391081363 0  0.3148669572599245 0.3331753056385887 0  1.614713220494657 0.09473434380863296 0  1.72990325744076 0.2380068107952482 0  1.356580098625191 0.2120393231351682 0  2.034370752044885 0.2668681600792073 0  1.51768709249349 0.3426260931494756 0  1.561883724969884 0.1650446847858835 0  1.197344062229598 0.2523725417393646 0  1.804085235518364 0.3468178408964637 0  1.817887819205233 0.2589243285818559 0  1.905897727272727 0.3485060975609756 0  0.7296439733931823 0.06337466644369745 0  0.4250935971865949 0.1394919578475796 0  0.3773030136511669 0.05130372097998036 0  1.192836486056382 0.3562350748565544 0  1.1029124365364 0.226143510831178 0  1.28257088594801 0.2944411014911587 0  0.1905185804731426 0.06029880676029167 0  1.474860187679412 0.2504218616229368 0  1.406767003493824 0.2829282258560709 0  0.5209826960981064 0.2830664557824064 0  0.5131119502780163 0.3617405848213254 0  0.1948220106098172 0.3081993407644811 0  1.845656689180403 0.1998310418452388 0  2.144958525570388 0.2909790873294231 0  2.2 0.15375 0  0.8833025251326762 0.2625402923007629 0  0.171875 0.3653875762360952 0  1.57794966442982 0.3540357145964566 0  0.446875 0.366068291212731 0  0.4272051715206439 0.2891929346190664 0  1.508991196088596 0.1421783375065625 0  1.50436820029908 0.06143401634903343 0  1.223857000523521 0.08235548624535324 0  0.6137904613287555 0.3066826366281556 0  1.153316824384777 0.1289850171317838 0  0.9751573703656133 0.327632618473408 0  2.148922302309752 0.1258841779285271 0  0.9281250000000001 0.3643758685795699 0  1.621993280276081 0.2841214267927899 0  1.550118654119087 0.2461998729100966 0  1.327182649291491 0.1216967252533594 0  0.9939955742738924 0.04663549843168518 0  1.753125 0.04556020050186112 0  1.271875 0.04556020050186116 0  0.9734326767716519 0.1506854560854393 0  0.103125 0.3675775577080512 0  1.94956388244759 0.1180512551534177 0  1.949997712993411 0.04965831614304109 0  0.717433898748555 0.295596016333797 0  1.771961817615021 0.1530278789497521 0  1.909246823951428 0.2812757146784527 0  0 0.35875 0  1.050632804931928 0.1226269704412814 0  0.05695108326502596 0.2024009637347154 0  1.948575539857022 0.2445328248721197 0  1.697271520964565 0.1233917627620729 0  1.065625 0.3689344961371042 0  1.085849084308977 0.3170853572226867 0  0.1015495998772944 0.04226029099983852 0  1.577403511714593 0.05463601888079143 0  1.751571320346033 0.3651102912045228 0  2.2 0.35875 0  0.7441773632462837 0.1786786606458751 0  0 0.05125 0  1.466879772203159 0.3611261772912453 0  0.6282230348858767 0.3577675483994025 0  1.990280163552011 0.3564754268533217 0  1.17471064520912 0.2990917256188288 0  0 0.25625 0  2.2 0.25625 0  2.2 0.05125 0  0 0.15375 0  1.853978576207987 0.35875 0  1.515638456102889 0.2882700110184686 0  2.150453692751374 0.2387066338105111 0  1.323782677156475 0.04897634338873398 0  1.409375 0.03715320121951221 0  1.406484531114799 0.1087852750766809 0  1.134375 0.03715320121951219 0  0.721875 0.3729363922161693 0  0.7941695928236929 0.3696489254637395 0  0.7934827162619036 0.3013409431456604 0  1.627401732573545 0.04552157221025036 0  0.9352049974617431 0.2507047965699472 0  0.8763260682738339 0.3611103317460093 0  2.045405893604797 0.1105340662939892 0  1.255408269734577 0.1577307500159216 0  2.028125 0.03707597992059326 0  1.003030137506755 0.3689344961371042 0  1.248258025468107 0.2565907092181813 0  1.203125 0.03661323374043041 0  0.4800125512335631 0.0549472816999725 0  2.072662025974815 0.2975086504196739 0  0.240625 0.3729825336867542 0  1.113252391110535 0.10238286244357 0  1.071052763974265 0.1885202618768825 0  0.8738809401657862 0.3106483608284829 0  0.6786819423003397 0.2677558482644021 0  1.887722846421017 0.1760882698830035 0  1.472640588990488 0.1118278026240017 0  0.5843750000000001 0.41 0  1.865937103925594 0.2604137786483804 0  1.463913572748262 0.2030442564990043 0  1.376426316059077 0.3186741374914345 0  0.1038643885363755 0.2162701735320032 0  0.1769473813227781 0.1070849728467114 0  0.458787839809176 0.171541653775316 0  0.240625 0 0  0.04179569703428024 0.2877217852556549 0  0.1258346557601885 0.2699740073054968 0  1.722140693354707 0.282908100935778 0  0.41206179117512 0.2448172567039922 0  0.3702471778075604 0.2265217604228704 0  0.3714881805374215 0.1786967818665642 0  1.77397096061971 0.2481483237422926 0  2.105123889160691 0.03743885948498647 0  1.001138337938679 0.229719337663998 0  1.051242910646791 0.2854826559431138 0  1.395420985247586 0.18
[...]
<PointData  Vectors="f_37"> 
<DataArray  type="Float64"  Name="f_37"  NumberOfComponents="3" format="ascii">2.4968811096074795e-07 4.5306002790955279e-08 0.0000000000000000e+00  -4.4531278403936568e-06 -3.5570037432944306e-07 0.0000000000000000e+00  -6.5045352723772164e-07 9.4746822324876526e-10 0.0000000000000000e+00  -8.3762307277610694e-07 2.3493296172035213e-10 0.0000000000000000e+00  -2.9987535678493856e-08 3.1784945198691760e-07 0.0000000000000000e+00  1.2940036411979018e-07 -1.9904893839962033e-08 0.0000000000000000e+00  1.2409689083332155e-07 1.8798484699404163e-07 0.0000000000000000e+00  -9.3900383415130980e-07 -9.2770963013829734e-08 0.0000000000000000e+00  -8.2125989007106020e-07 -1.2111826905037579e-07 0.0000000000000000e+00  1.1787568461377799e-07 -4.7868979037599230e-07 0.0000000000000000e+00  -9.3441119833822160e-07 -5.0625207134992923e-07 0.0000000000000000e+00  -1.0280613133236734e-06 -2.3770690168598163e-07 0.0000000000000000e+00  3.6419627797587914e-07 1.8527699046676136e-07 0.0000000000000000e+00  -2.9950378784973395e-07 -2.0632450381217793e-07 0.0000000000000000e+00  -3.0376408632589758e-07 8.9749637399090465e-08 0.0000000000000000e+00  -8.4858382956464943e-07 -2.7202895416295537e-07 0.0000000000000000e+00  2.3494038418791848e-06 3.3131116396099800e-07 0.0000000000000000e+00  3.4816570162546501e-01 9.6812762697402702e-02 0.0000000000000000e+00  1.4934930729217430e-06 -1.3148040025191266e-07 0.0000000000000000e+00  -1.3594295619534110e-06 3.5797307405909622e-07 0.0000000000000000e+00  -1.3643795020426458e-06 -2.2012060073338309e-07 0.0000000000000000e+00  -4.1444584447456465e-09 -3.3815934817344521e-07 0.0000000000000000e+00  5.2032010013268420e-07 1.4054376039734670e-07 0.0000000000000000e+00  -5.0052623733870074e-07 -1.8642321646287361e-06 0.0000000000000000e+00  -3.2075864095036332e-06 -1.5696433935739342e-06 0.0000000000000000e+00  -4.5311534360001592e-06 -3.3015924371652602e-07 0.0000000000000000e+00  -4.4515871962047080e-06 -5.3839739415830984e-08 0.0000000000000000e+00  -3.6671265220354717e-07 1.6470251898435288e-07 0.0000000000000000e+00  2.4155732286697639e-06 -5.5414778176270215e-07 0.0000000000000000e+00  1.6583342549322422e-01 -4.2954906274017404e-07 0.0000000000000000e+00  -1.1459691942646247e-06 -6.3734170528460522e-08 0.0000000000000000e+00  2.9239410637895466e-06 3.8229049172210868e-08 0.0000000000000000e+00  -5.0864875225751688e-07 -9.7185485844559974e-08 0.0000000000000000e+00  4.0702859563961612e-07 4.8426387453533443e-08 0.0000000000000000e+00  -3.8952712092903802e-07 -1.7849418681016079e-08 0.0000000000000000e+00  -1.0441614122760295e-06 -3.0864650030331920e-09 0.0000000000000000e+00  -1.4740212470903273e-06 8.1108136157608590e-08 0.0000000000000000e+00  -2.5260634446740834e-06 -4.7888093929636060e-07 0.0000000000000000e+00  -8.7964506949487248e-06 -1.1924449643301765e-06 0.0000000000000000e+00  -1.2491236274545374e-06 -6.0035339119928609e-08 0.0000000000000000e+00  -9.3473376120795600e-07 -6.6044598582168264e-08 0.0000000000000000e+00  -2.9051338814747106e-06 5.9970300267526529e-07 0.0000000000000000e+00  9.5351335447147094e-07 1.9677955731035700e-07 0.0000000000000000e+00  -5.0343306612598875e-07 -4.2988564605327553e-10 0.0000000000000000e+00  -5.6345063330209928e-08 4.5071133455729055e-10 0.0000000000000000e+00  2.3367579257706342e-01 1.9737712026281048e-02 0.0000000000000000e+00  2.2708562245793038e-01 1.7926898704113117e-03 0.0000000000000000e+00  1.6438716628793512e-01 -4.5918164967955807e-03 0.0000000000000000e+00  3.0738782944133136e-01 -1.0070567032136994e-01 0.0000000000000000e+00  2.2715363437740321e-01 -4.2380026380830752e-05 0.0000000000000000e+00  2.2683935573689029e-01 -7.0964105202677387e-05 0.0000000000000000e+00  2.6365748354654811e-07 -4.4162529726587005e-09 0.0000000000000000e+00  1.5838819066701793e-07 3.1055116230174402e-10 0.0000000000000000e+00  -5.4372943362192390e-07 1.3529943198082851e-09 0.0000000000000000e+00  1.8633382337709142e-01 -3.3671258095377234e-05 0.0000000000000000e+00  -8.0515674199216233e-07 -1.0378363064918202e-08 0.0000000000000000e+00  2.4693482945219394e-01 -4.2944654739296914e-02 0.0000000000000000e+00  -1.1893117832598933e-06 -1.7176397567836136e-08 0.0000000000000000e+00  -9.7886793774453191e-07 -1.1530063359045097e-08 0.0000000000000000e+00  -1.3192729636399009e-06 -1.7117807709464771e-07 0.0000000000000000e+00  -4.2579334154101868e-07 -9.4230495719242860e-08 0.0000000000000000e+00  -4.0033910117929556e-07 -9.1350861831234440e-08 0.0000000000000000e+00  -8.4857889493543619e-07 -6.6382284288860393e-08 0.0000000000000000e+00  -3.6790136620570871e-07 -5.5554273216540717e-08 0.0000000000000000e+00  -2.3744159315599688e-06 7.2458605350467092e-08 0.0000000000000000e+00  -2.9938583154744719e-07 5.3926776157391829e-08 0.0000000000000000e+00  1.3881829104155757e-07 -3.1020735320832045e-07 0.0000000000000000e+00  1.3867733624763942e-01 -1.2188170763709509e-02 0.0000000000000000e+00  3.3178266268392076e-07 1.6180950535591032e-07 0.0000000000000000e+00  2.2087415066423857e-01 7.9681007988764967e-03 0.0000000000000000e+00  2.6349005913811430e-01 -3.7843419021935124e-02 0.0000000000000000e+00  1.0627821793701515e-01 5.3656702300323295e-03 0.0000000000000000e+00  3.0490278678832322e-01 1.0662884768258651e-01 0.0000000000000000e+00  2.0432086220941162e-01 5.3036153770349955e-03 0.0000000000000000e+00  3.4889816344454538e-01 -7.1166518248243410e-02 0.0000000000000000e+00  2.0217635960809324e-01 -1.6509266793808580e-02 0.0000000000000000e+00  7.0817007752581110e-02 4.8913287162256493e-02 0.0000000000000000e+00  2.0647343872488791e-01 1.2169371924394731e-04 0.0000000000000000e+00  2.0640982278878980e-01 -6.7053188565803729e-05 0.0000000000000000e+00  1.8625982758028312e-01 2.0142548176528449e-04 0.0000000000000000e+00  7.5234904962517016e-02 4.9405728373946767e-08 0.0000000000000000e+00  2.7319254706755053e-01 1.8443863055051390e-08 0.0000000000000000e+00  2.1879794682633769e-01 -7.8163322704667001e-05 0.0000000000000000e+00  2.4123371083781556e-01 7.2332394704821737e-02 0.0000000000000000e+00  1.6546859069754913e-01 -5.9636553608401407e-05 0.0000000000000000e+00  1.5312772812888456e-01 1.8323205163488208e-02 0.0000000000000000e+00  1.8071419131821567e-01 1.3209375616337400e-02 0.0000000000000000e+00  3.1814096248980889e-01 -3.3693787459233314e-02 0.0000000000000000e+00  1.8128185850133427e-01 -6.7089448120294826e-05 0.0000000000000000e+00  1.8751081507115186e-01 1.6361245231945327e-03 0.0000000000000000e+00  1.3820743000371602e-01 -6.1986820276870469e-02 0.0000000000000000e+00  3.9236156598190780e-01 -3.7826839660150616e-02 0.0000000000000000e+00  4.7700855931913401e-02 2.2042009239956247e-02 0.0000000000000000e+00  1.8617955592849753e-01 -2.2663546936352494e-05 0.0000000000000000e+00  2.2203381673341241e-01 -4.5131613902607760e-02 0.0000000000000000e+00  2.0071356811796817e-01 8.9679336759402959e-03 0.0000000000000000e+00  1.7140391472684302e-01 -4.0956341467277202e-03 0.0000000000000000e+00  2.2441774296790576e-02 -1.6853668595000530e-02 0.0000000000000000e+00  4.2581761824089037e-01 -3.5790041734848829e-02 0.0000000000000000e+00  -5.9265152264687151e-07 7.4497720186301588e-08 0.0000000000000000e+00  2.2616495708939308e-01 1.9319839469214120e-04 0.0000000000000000e+00  -9.3317544622355803e-07 -6.1809048527865898e-09 0.0000000000000000e+00  1.9747018560946875e-01 1.4088622747251965e-03 0.0000000000000000e+00  2.9971646099496507e-01 -4.2844419759094012e-02 0.0000000000000000e+00  2.4261903059570694e-01 3.1975835062762366e-03 0.0000000000000000e+00  1.2570832776197507e-01 7.1169217916102812e-02 0.0000000000000000e+00  2.3117413275143431e-01 1.4888893729342602e-02 0.0000000000000000e+00  2.0879053103780831e-01 2.4391259482112997e-02 0.0000000000000000e+00  1.4757813155890293e-01 7.4013816254348191e-02 0.0000000000000000e+00  4.5632188406500418e-01 -1.3782898755763842e-02 0.0000000000000000e+00  7.5680072229240669e-02 2.7790532114410616e-02 0.0000000000000000e+00  -2.1995786241350125e-07 -8.2752864613727234e-08 0.0000000000000000e+00  1.4314070531474432e-01 -3.4748897522210747e-05 0.0000000000000000e+00  -1.6224940769669049e-06 -2.8422401675006034e-11 0.0000000000000000e+00  -1.2902906948694722e-06 8.9049939371892337e-09 0.0000000000000000e+00  1.5503127418222546e-06 3.9436688224786764e-07 0.0000000000000000e+00  2.2529949062601720e-01 1.4886999996570399e-02 0.0000000000000000e+00  -1.9139526423179065e-06 -2.3756120994881211e-08 0.0000000000000000e+00  4.0381034852511721e-01 4.2475709610576479e-02 0.0000000000000000e+00  3.7430215694645375e-01 7.6981451645111248e-02 0.0000000000000000e+00  1.5228168583131671e-01 2.3518315210867933e-04 0.0000000000000000e+00  3.4360042065696733e-01 1.3155281272955789e-02 0.0000000000000000e+00  -1.0977985262009230e-06 -3.5586726523196461e-08 0.0000000000000000e+00  -7.5109706402013849e-08 -8.5868012503506548e-09 0.0000000000000000e+00  -6.1468041278603240e-07 5.5277980494140353e-09 0.0000000000000000e+00  1.5742050154783221e-01 -6.2116083133873713e-05 0.0000000000000000e+00  1.0413079311014793e-01 2.0533580092098195e-03 0.0000000000000000e+00  -3.1624043330422095e-07 -9.6354546915760763e-08 0.0000000000000000e+00  1.4585730829045140e-01 -2.5534223191070446e-02 0.0000000000000000e+00  1.5512774965552972e-01 1.4934681345763928e-01 0.0000000000000000e+00  3.9537288980889729e-01 -3.4056079120847363e-02 0.0000000000000000e+00  1.8509568251336655e-06 -9.8806969457159007e-08 0.0000000000000000e+00  1.1459336171925440e-01 4.8177347570073747e-02 0.0000000000000000e+00  2.4293183060751952e-01 -1.7054022072120023e-03 0.0000000000000000e+00  1.5024122721340763e-01 -2.4989778306259404e-02 0.0000000000000000e+00  -2.4737718358402198e-06 3.3326808649459229e-07 0.0000000000000000e+00  7.8234706310713366e-03 1.1334552136296670e-02 0.0000000000000000e+00  2.2475480926401495e-01 4.1477526857240810e-03 0.0000000000000000e+00  2.8783318071506053e-01 -7.6987049562066881e-02 0.0000000000000000e+00  2.7136234694283012e-01 -8.3707307204649806e-02 0.0000000000000000e+00  1.5625988182347583e-01 2.5886357183421537e-03 0.0000000000000000e+00  1.6912795021900048e-01 -6.7764042440645364e-02 0.0000000000000000e+00  2.3858869948174749e-01 2.4791800029172334e-02 0.0000000000000000e+00  6.1146598174258895e-02 1.8955844819132935e-02 0.0000000000000000e+00  1.4190515675736076e-01 5.6223384240515024e-03 0.0000000000000000e+00  2.4947609296252171e-02 9.7393882089375026e-03 0.0000000000000000e+00  2.1201620063304402e-01 7.6443094982805897e-03 0.0000000000000000e+00  3.5619602433443712e-02 1.5894947735001368e-02 0.0000000000000000e+00  1.0128417750369631e-01 -2.0006169414284746e-02 0.0000000000000000e+00  -9.3759250252916948e-07 -1.1032366662541306e-07 0.0000000000000000e+00  -1.7059828064403191e-07 -7.0508421369820226e-08 0.0000000000000000e+00  -7.3684930013726750e-07 3.8068148704985793e-07 0.0000000000000000e+00  3.5286452713016558e-01 -4.1544557499405464e-02 0.0000000000000000e+00  7.8040333071980023e-02 3.1200000320005687e-02 0.0000000000000000e+00  -2.2476750922069521e-06 -1.0239625526192187e-07 0.0000000000000000e+00  -1.4155676525353320e-06 -1.1982923923820168e-07 0.0000000000000000e+00  1.4300884019010085e-01 3.9473155057709137e-03 0.0000000000000000e+00  2.1554218543315662e-01 7.7560668238157646e-04 0.0000000000000000e+00  -7.1736549453670282e-07 -2.5295527504769836e-09 0.0000000000000000e+00  -1.6046030707748276e-06 2.5011070281971572e-07 0.0000000000000000e+00  -6.2043682613785047e-07 -1.1812019738007939e-07 0.0000000000000000e+00  -1.3217706020490806e-07 -1.6199978675313961e-09 0.0000000000000000e+00  -9.6027535875635343e-08 5.9203227178721765e-10 0.0000000000000000e+00  3.7738909046324904e-07 -5.4330046284120323e-09 0.0000000000000000e+00  -2.2174494081079978e-06 -2.6947254917246022e-07 0.0000000000000000e+00  2.6550150228452758e-06 -7.5719478834053834e-07 0.0000000000000000e+00  -2.3312132722638105e-07 -1.2183314032469460e-07 0.0000000000000000e+00  7.2281104176630331e-07 -7.7232010560709099e-08 0.0000000000000000e+00  2.2156891496193251e-07 -2.2335521069782675e-08 0.0000000000000000e+00  -8.9433037313451361e-07 1.0661458256785724e-09 0.0000000000000000e+00  -2.9862349710611622e-07 4.8359484658520505e-10 0.0000000000000000e+00  3.2218263561931373e-02 1.2216525217203842e-02 0.0000000000000000e+00  8.4314734378744940e-02 -2.5614285798491645e-03 0.0000000000000000e+00  1.7978988296684431e-01 -2.1453876936931255e-02 0.0000000000000000e+00  1.3841997902928577e-01 1.5176044991752138e-03 0.0000000000000000e+00  2.9170554765602213e-01 7.5954662263112413e-02 0.0000000000000000e+00  3.3718069161790554e-01 5.3572979031516268e-02 0.0000000000000000e+00  3.1541427469823685e-01 2.6272928162480846e-02 0.0000000000000000e+00  1.4817655718984912e-01 -2.2763286562221847e-05 0.0000000000000000e+00  2.2620004968435825e-01 7.8713802989028650e-03 0.0000000000000000e+00  2.8820105958845738e-01 -6.9206391011817719e-02 0.0000000000000000e+00  8.2816560914673959e-02 6.3727786058058872e-03 0.0000000000000000e+00  2.2652686460902599e-01 -6.9793563215773065e-05 0.0000000000000000e+00  2.2702750247547882e-01 -9.3419768172573844e-05 0.0000000000000000e+00  2.1709826877382746e-01 -9.0944381954177436e-05 0.0000000000000000e+00  2.2409397943471918e-01 4.4644779772135237e-06 0.0000000000000000e+00  1.3156933292097162e-01 -1.0471763775185503e-06 0.0000000000000000e+00  1.4020358860086884e-01 -3.2840330237403067e-05 0.0000000000000000e+00  1.9841205033301840e-01 1.8990539226261208e-01 0.0000000000000000e+00  4.1816536824610034e-02 4.6575207290877142e-02 0.0000000000000000e+00  9.3717139370594851e-02 -1.0933820461935849e-02 0.0000000000000000e+00  2.1990416563707427e-01 -4.8813559801831885e-03 0.0000000000000000e+00  1.8648187804051422e-01 6.3644509148685531e-03 0.0000000000000000e+00  2.2267900359258810e-01 3.6245711993500044e-03 0.0000000000000000e+00  2.7476420798268664e-01 -4.1318142794792671e-02 0.0000000000000000e+00  2.1455549739994162e-01 -8.7683952336677244e-05 0.0000000000000000e+00  1.2027758669259732e-01 9.6185802060469918e-03 0.0000000000000000e+00  2.3051826571442258e-01 1.4961526843732200e-02 0.0000000000000000e+00  3.3257236961205389e-01 -9.0765597878359278e-02 0.0000000000000000e+00  1.3570942054090412e-01 2.6764960732024819e-04 0.0000000000000000e+00  2.1738621165038327e-01 8.8248543336908022e-04 0.0000000000000000e+00  1.3325952370557267e-01 -1.7473426115997539e-05 0.0000000000000000e+00  1.6304044798717424e-01 7.7302099603566696e-02 0.0000000000000000e+00  2.4633725417640270e-01 1.3007702890060041e-01 0.0000000000000000e+00  2.1967817937619699e-01 3.1008560456493535e-02 0.0000000000000000e+00  1.2191080530256225e-01 -1.4256897948794716e-02 0.0000000000000000e+00  3.0158613141369711e-01 -5.9046055181555784e-02 0.0000000000000000e+00  2.0865947860750256e-01 -3.8421103547067827e-02 0.0000000000000000e+00  3.9249223495083663e-01 1.8031416981003055e-02 0.0000000000000000e+00  2.1288809544629825e-01 2.2469035765478547e-02 0.0000000000000000e+00  1.8213801114179556e-01 9.6844418112024006e-03 0.0000000000000000e+00  3.4026685283263219e-01 1.8282464725660777e-01 0.0000000000000000e+00  2.7748125208061419e-01 3.6234496062257184e-02 0.0000000000000000e+00  2.3158406543046564e-01 7.2469234647658337e-02 0.0000000000000000e+00  2.2706765858308048e-01 6.9141713407079445e-04 0.0000000000000000e+00  2.0034340209056745e-01 -5.7337673842231847e-05 0.0000000000000000e+00  2.1869971296534688e-01 -3.3306836623638127e-05 0.0000000000000000e+00  2.9754449129721194e-01 -3.6403133195100454e-02 0.0000000000000000e+00  1.2560534769947793e-01 2.5557531630255061e-02 0.0000000000000000e+00  1.1284061096302529e-01 4.6699444878668707e-03 0.0000000000000000e+00  2.1002252082062089e-01 2.1470466278290946e-02 0.0000000000000000e+00  1.5884137005031251e-01 4.9400828208313687e-02 0.0000000000000000e+00  2.3037122605178476e-01 1.0436821005493155e-02 0.0000000000000000e+00  1.5125386077963968e-01 3.5283213938954476e-03 0.0000000000000000e+00  6.5490268197519838e-02 -3.9920345283735607e-02 0.0000000000000000e+00  4.6280978087652597e-01 4.2505024682739929e-02 0.0000000000000000e+00  1.2177331407863462e-01 -3.3101455498473140e-02 0.0000000000000000e+00  3.4750174975228004e-01 -3.0944676649568788e-02 0.0000000000000000e+00  2.0491650263796454e-01 -4.1284101327041070e-05 0.0000000000000000e+00  2.3702945165744332e-01 -1.2736103444730447e-02 0.0000000000000000e+00  1.9777559398036623e-01 9.2708271936419936e-03 0.0000000000000000e+00  2.1463636172048500e-01 2.0152187156890509e-02 0.0000000000000000e+00  2.0137607622868534e-01 -6.2567448606994619e-02 0.0000000000000000e+00  7.0685733209058200e-03 8.7719050891075720e-03 0.0000000000000000e+00  1.0507895569669390e-01 4.3735150374849636e-04 0.0000000000000000e+00  4.5253157796532509e-02 -2.0285836566859165e-02 0.0000000000000000e+00  9.7233448818587143e-02 2.0513141631443313e-02 0.0000000000000000e+00  6.2739135783237837e-02 1.7617099329125103e-02 0.0000000000000000e+00  1.9937665866672205e-01 -4.0592171082315531e-05 0.0000000000000000e+00  1.1204300917624645e-01 -3.6091672565468539e-05 0.0000000000000000e+00  4.0298688544309247e-01 -4.0420351875111324e-02 0.0000000000000000e+00  2.1920312810604137e-01 1.9357491494732093e-03 0.0000000000000000e+00  2.0681858572367492e-01 4.4551005773337043e-05 0.0000000000000000e+00  3.5785430749552143e-02 8.5566773371601452e-08 0.0000000000000000e+00  7.5921220321771871e-02 1.4951321353435793e-02 0.0000000000000000e+00  1.5903444223622903e-01 4.2016003080605491e-02 0.0000000000000000e+00  2.2233223175053937e-01 -9.5661243574579618e-06 0.0000000000000000e+00  2.0614740647254123e-01 4.0494036263159332e-03 0.0000000000000000e+00  1.5092498531275367e-01 -1.0341078979279206e-02 0.0000000000000000e+00  3.1267405321090608e-01 -4.4570099006643417e-02 0.0000000000000000e+00  3.8095790950209774e-01 3.5629815689065147e-02 0.0000000000000000e+00  1.3167161028597973e-01 3.5370914337342148e-03 0.0000000000000000e+00  1.0278154103673026e-01 3.8678611972722777e-04 0.0000000000000000e+00  1.1523095558495615e-01 -1.9381454167500431e-05 0.0000000000000000e+00  -7.1349963157432061e-03 1.2966370321723391e-02 0.0000000000000000e+00  3.3356379431970151e-01 3.1244601758993237e-08 0.0000000000000000e+00  8.0486478339234113e-02 6.7602525787669697e-03 0.0000000000000000e+00  3.9089806355093293e-01 3.1920846277702589e-03 0.0000000000000000e+00  1.1951590778279519e-01 -4.4332625463034848e-05 0.0000000000000000e+00  2.8612584476112157e-01 -6.0185498621475805e-02 0.0000000000000000e+00  1.1852650427189404e-01 -2.4630275886759541e-08 0.0000000000000000e+00  2.1878190274579182e-01 -2.9582411461559678e-05 0.0000000000000000e+00  1.1512245039232270e-01 -3.2885665652478083e-06 0.0000000000000000e+00  2.1733315072623605e-01 -2.7204030074446513e-08 0.0000000000000000e+00  1.1542750832734673e-01 4.2118460009626398e-05 0.0000000000000000e+00  1.8223508270051531e-01 2.0249895899866244e-02 0.0000000000000000e+00  2.2370195068669541e-01 -5.4986638311292310e-05 0.0000000000000000e+00  8.5974025236835033e-02 -2.0142887410120061e-02 0.0000000000000000e+00  9.9922088341429210e-02 -4.0279405899750591e-03 0.0000000000000000e+00  2.0692369871676514e-01 -2.2261126259328939e-02 0.0000000000000000e+00  -2.2616044624665037e-02 5.6459737696761979e-04 0.0000000000000000e+00  3.1148193809870456e-01 -1.6466142275434349e-02 0.0000000000000000e+00  2.8476787515254814e-01 -1.6968500220758739e-02 0.0000000000000000e+00  4.0864150387098297e-01 -4.5756420596389138e-02 0.0000000000000000e+00  1.0986012181202762e-01 1.9191483182691804e-03 0.0000000000000000e+00  2.7698811965487169e-01 -3.1089950525652787e-02 0.0000000000000000e+00  2.7951320451131778e-01 -1.6671339435014518e-02 0.0000000000000000e+00  1.9340447551033882e-01 -7.0781479930903218e-05 0.0000000000000000e+00  2.3886212290659542e-01 -9.1117045616711786e-02 0.0000000000000000e+00  8.7422186284442829e-02 -1.7825173996051545e-05 0.0000000000000000e+00  1.8088811300717061e-01 -1.0037786108310772e-02 0.0000000000000000e+00  2.9938