<?xml version="1.0"?>
<VTKFile type="UnstructuredGrid"  version="0.1"  >
<UnstructuredGrid>
<Piece  NumberOfPoints="1404" NumberOfCells="2604">
<Points>
<DataArray  type="Float64"  NumberOfComponents="3"  format="ascii">0 0.41 0  0 0 0  2.2 0 0  2.2 0.41 0  0.2353553390593274 0.2353553390593274 0  0.25 0.2 0  0.2353553390593274 0.1646446609406726 0  0.2 0.15 0  0.1646446609406726 0.1646446609406726 0  0.15 0.2 0  0.1646446609406726 0.2353553390593274 0  0.2 0.25 0  0.6923879532511287 0.188268343236509 0  0.7 0.15 0  0.6923879532511287 0.1117316567634909 0  0.6707106781186547 0.07928932188134523 0  0.6382683432365089 0.05761204674887133 0  0.6 0.04999999999999999 0  0.5617316567634909 0.05761204674887134 0  0.5292893218813453 0.07928932188134524 0  0.5076120467488713 0.111731656763491 0  0.5 0.15 0  0.5076120467488713 0.188268343236509 0  0.5292893218813453 0.2207106781186547 0  0.561731656763491 0.2423879532511287 0  0.6 0.25 0  0.6382683432365089 0.2423879532511287 0  0.6707106781186547 0.2207106781186547 0  1.1 0 0  0 0.205 0  1.1 0.41 0  0.55 0 0  0.55 0.41 0  0.275 0 0  0.8250000000000001 0 0  0.275 0.41 0  0.8250000000000001 0.41 0  0.6875 0 0  0.61875 0 0  1.65 0.41 0  1.65 0 0  1.375 0 0  1.375 0.41 0  1.925 0 0  1.925 0.41 0  1.5125 0.205 0  1.7875 0.205 0  0.9625000000000001 0.205 0  1.2375 0.205 0  2.2 0.205 0  1.99375 0.2152743902439024 0  0.4125 0.41 0  2.0625 0 0  2.0625 0.41 0  2.2 0.3075 0  1.7875 0.41 0  1.375 0.1486128048780488 0  1.5125 0 0  1.7875 0 0  1.5125 0.41 0  0.9625000000000001 0.41 0  0.4125 0 0  0.1375 0 0  0.1375 0.41 0  0.6875 0.41 0  0.9625000000000001 0 0  1.2375 0 0  1.1 0.1486128048780488 0  1.2375 0.41 0  1.65 0.1486128048780487 0  0.823495464168302 0.2603780552348366 0  0.3738707794507017 0.2720196349488618 0  0.3662291281331582 0.1311456406657909 0  1.676715909090909 0.2793064024390244 0  1.126715909090909 0.2793064024390244 0  1.348284090909091 0.2793064024390244 0  0.8287581077665108 0.1302150898054257 0  1.894702181800738 0.1282910975492754 0  2.092797818199262 0.1282910975492754 0  1.85625 0.3075 0  0 0.3075 0  0 0.1025 0  2.099172119769978 0.25625 0  0.4752414543992246 0.3180372603390748 0  1.99375 0.08395950269330846 0  1.459960956013612 0.3075 0  1.569025960719943 0.2986889805672169 0  1.03125 0.3278689922742084 0  1.959375 0.3126371951219512 0  1.749222215368287 0.1025 0  1.275777784631713 0.1025 0  0.9228016959331474 0.3075 0  1.000777784631713 0.1025 0  2.2 0.1025 0  1.225938124459196 0.3075 0  1.550777784631713 0.1025 0  1.44375 0.07430640243902442 0  1.16875 0.07430640243902439 0  0.7562500000000001 0.3358727844323386 0  0.89375 0 0  1.899250267340833 0.2229966846119207 0  0.61875 0.41 0  1.766482954545455 0.2934032012195123 0  1.046078563095834 0.2389031808701145 0  1.421109702350723 0.2261157654379721 0  0.07567171807980319 0.25625 0  0.2511897295290552 0.3235829392832554 0  0.07655002503762308 0.1488653460959645 0  0.1377245246847496 0.3206030474919778 0  0.6694099692696568 0.3242771941727899 0  0.9168971191497528 0.1295727156104653 0  0.7562500000000001 0 0  2.118919042110979 0.3422084711244843 0  2.13125 0 0  0.06875000000000001 0 0  1.30625 0.41 0  1.597888256393107 0.2173787389261347 0  0.34375 0.41 0  0.2493272016354703 0.08091360081773515 0  0.5588896233436766 0.3264056208677571 0  1.829299675393195 0.07400700849299596 0  0.1334079128307869 0.08523463035786674 0  1.71875 0.41 0  0.06875000000000001 0.41 0  1.16875 0.41 0  2.038220665644273 0.332420740103091 0  0.8810647413215221 0.2027360103977071 0  0.34375 0 0  0.7453891198966415 0.2471459041008237 0  0.42112093004955 0.1988123139090554 0  0.8314023090855964 0.3351170841770613 0  0.89375 0.41 0  0.7906250000000001 0.06615386481594063 0  1.452769549894695 0.1548122580621249 0  1.369219062229598 0.07430640243902442 0  1.30625 0 0  1.07420695807087 0.07430640243902439 0  1.720943423819132 0.1714577452753128 0  1.157188124459196 0.205 0  1.304056576180868 0.1714577452753128 0  1.67579304192913 0.07430640243902437 0  1.209670467133757 0.136210026696477 0  0.4312800784902823 0.08036147352247747 0  0.8723959680194693 0.07066860609690805 0  1.025335513626278 0.1700681449722324 0  0.7945632284247136 0.1940204203251442 0  0.378125 0.3452261501101892 0  0.3307109909790086 0.2037165635083759 0  0.3009701032039409 0.2702970083403109 0  0.20625 0.41 0  1.58125 0 0  0.4812500000000001 0 0  0.9838963872396855 0.2722244191167347 0  0.06772484939107212 0.3260067317374387 0  0.20625 0 0  1.58125 0.41 0  1.631724228912893 0.3381867502687533 0  1.825608881788174 0.14499488549201 0  1.85625 0 0  1.44375 0 0  1.44375 0.41 0  1.85625 0.41 0  2.13125 0.41 0  0.7562500000000001 0.41 0  0.4812500000000001 0.41 0  1.16875 0 0  1.03125 0.41 0  1.03125 0 0  1.71875 0 0  1.99375 0 0  1.99375 0.41 0  0.9408708167433545 0.0651989315768642 0  1.340625 0.3489494290853124 0  1.134375 0.3489494290853123 0  1.700180620188976 0.3438659752031281 0  0.29668452290037 0.1318471691375986 0  0.3175441051360096 0.06496934809856265 0  0.06509151636162461 0.08140814015999148 0  2.135782184673599 0.07126652247502523 0  1.668441847249787 0.2129203728327609 0  1.295782514339747 0.2378437748815763 0  1.409375 0.3520314716057996 0  2.129248544730567 0.1906135162504124 0  2.060771381434487 0.1989445750470348 0  2.013252586573865 0.1496169464686054 0  1.942766402200229 0.1734448904596831 0  1.895522487186454 0.06076163953489683 0  2.069553871656643 0.06605731020975725 0  0.4670911801404742 0.2498408582391372 0  0.7622743084658112 0.1264100838268133 0  1.274680914880868 0.3520219391081363 0  0.3148669572599245 0.3331753056385887 0  1.614713220494657 0.09473434380863296 0  1.72990325744076 0.2380068107952482 0  1.356580098625191 0.2120393231351682 0  2.034370752044885 0.2668681600792073 0  1.51768709249349 0.3426260931494756 0  1.561883724969884 0.1650446847858835 0  1.197344062229598 0.2523725417393646 0  1.804085235518364 0.3468178408964637 0  1.817887819205233 0.2589243285818559 0  1.905897727272727 0.3485060975609756 0  0.7296439733931823 0.06337466644369745 0  0.4250935971865949 0.1394919578475796 0  0.3773030136511669 0.05130372097998036 0  1.192836486056382 0.3562350748565544 0  1.1029124365364 0.226143510831178 0  1.28257088594801 0.2944411014911587 0  0.1905185804731426 0.06029880676029167 0  1.474860187679412 0.2504218616229368 0  1.406767003493824 0.2829282258560709 0  0.5209826960981064 0.2830664557824064 0  0.5131119502780163 0.3617405848213254 0  0.1948220106098172 0.3081993407644811 0  1.845656689180403 0.1998310418452388 0  2.144958525570388 0.2909790873294231 0  2.2 0.15375 0  0.8833025251326762 0.2625402923007629 0  0.171875 0.3653875762360952 0  1.57794966442982 0.3540357145964566 0  0.446875 0.366068291212731 0  0.4272051715206439 0.2891929346190664 0  1.508991196088596 0.1421783375065625 0  1.50436820029908 0.06143401634903343 0  1.223857000523521 0.08235548624535324 0  0.6137904613287555 0.3066826366281556 0  1.153316824384777 0.1289850171317838 0  0.9751573703656133 0.327632618473408 0  2.148922302309752 0.1258841779285271 0  0.9281250000000001 0.3643758685795699 0  1.621993280276081 0.2841214267927899 0  1.550118654119087 0.2461998729100966 0  1.327182649291491 0.1216967252533594 0  0.9939955742738924 0.04663549843168518 0  1.753125 0.04556020050186112 0  1.271875 0.04556020050186116 0  0.9734326767716519 0.1506854560854393 0  0.103125 0.3675775577080512 0  1.94956388244759 0.1180512551534177 0  1.949997712993411 0.04965831614304109 0  0.717433898748555 0.295596016333797 0  1.771961817615021 0.1530278789497521 0  1.909246823951428 0.2812757146784527 0  0 0.35875 0  1.050632804931928 0.1226269704412814 0  0.05695108326502596 0.2024009637347154 0  1.948575539857022 0.2445328248721197 0  1.697271520964565 0.1233917627620729 0  1.065625 0.3689344961371042 0  1.085849084308977 0.3170853572226867 0  0.1015495998772944 0.04226029099983852 0  1.577403511714593 0.05463601888079143 0  1.751571320346033 0.3651102912045228 0  2.2 0.35875 0  0.7441773632462837 0.1786786606458751 0  0 0.05125 0  1.466879772203159 0.3611261772912453 0  0.6282230348858767 0.3577675483994025 0  1.990280163552011 0.3564754268533217 0  1.17471064520912 0.2990917256188288 0  0 0.25625 0  2.2 0.25625 0  2.2 0.05125 0  0 0.15375 0  1.853978576207987 0.35875 0  1.515638456102889 0.2882700110184686 0  2.150453692751374 0.2387066338105111 0  1.323782677156475 0.04897634338873398 0  1.409375 0.03715320121951221 0  1.406484531114799 0.1087852750766809 0  1.134375 0.03715320121951219 0  0.721875 0.3729363922161693 0  0.7941695928236929 0.3696489254637395 0  0.7934827162619036 0.3013409431456604 0  1.627401732573545 0.04552157221025036 0  0.9352049974617431 0.2507047965699472 0  0.8763260682738339 0.3611103317460093 0  2.045405893604797 0.1105340662939892 0  1.255408269734577 0.1577307500159216 0  2.028125 0.03707597992059326 0  1.003030137506755 0.3689344961371042 0  1.248258025468107 0.2565907092181813 0  1.203125 0.03661323374043041 0  0.4800125512335631 0.0549472816999725 0  2.072662025974815 0.2975086504196739 0  0.240625 0.3729825336867542 0  1.113252391110535 0.10238286244357 0  1.071052763974265 0.1885202618768825 0  0.8738809401657862 0.3106483608284829 0  0.6786819423003397 0.2677558482644021 0  1.887722846421017 0.1760882698830035 0  1.472640588990488 0.1118278026240017 0  0.5843750000000001 0.41 0  1.865937103925594 0.2604137786483804 0  1.463913572748262 0.2030442564990043 0  1.376426316059077 0.3186741374914345 0  0.1038643885363755 0.2162701735320032 0  0.1769473813227781 0.1070849728467114 0  0.458787839809176 0.171541653775316 0  0.240625 0 0  0.04179569703428024 0.2877217852556549 0  0.1258346557601885 0.2699740073054968 0  1.722140693354707 0.282908100935778 0  0.41206179117512 0.2448172567039922 0  0.3702471778075604 0.2265217604228704 0  0.3714881805374215 0.1786967818665642 0  1.77397096061971 0.2481483237422926 0  2.105123889160691 0.03743885948498647 0  1.001138337938679 0.229719337663998 0  1.051242910646791 0.2854826559431138 0  1.395420985247586 0.18
[...]
<PointData  Vectors="f_37"> 
<DataArray  type="Float64"  Name="f_37"  NumberOfComponents="3" format="ascii">2.5194678470939540e-07 4.7988183389830061e-08 0.0000000000000000e+00  -4.4450713296196153e-06 -3.6318094715719952e-07 0.0000000000000000e+00  -6.5586847164392844e-07 4.6046470479222841e-10 0.0000000000000000e+00  -8.5990535651064002e-07 9.6910360343120094e-11 0.0000000000000000e+00  3.5775284409986339e-08 2.2612974456375262e-07 0.0000000000000000e+00  2.0073496577895565e-07 -1.5345654157091852e-07 0.0000000000000000e+00  1.4358862963273550e-07 1.4516093022227449e-07 0.0000000000000000e+00  -9.3074432429828223e-07 -8.8159135322175363e-08 0.0000000000000000e+00  -7.3117344467684497e-07 -1.6194912735424464e-07 0.0000000000000000e+00  9.5905648925194347e-08 -5.7870928026494985e-07 0.0000000000000000e+00  -9.9265001034008264e-07 -5.1874127422316778e-07 0.0000000000000000e+00  -1.0444018042050539e-06 -2.1530609916769031e-07 0.0000000000000000e+00  2.8717081640411766e-07 5.4280144248319625e-07 0.0000000000000000e+00  -3.4319845264386897e-07 -1.2540293946772915e-07 0.0000000000000000e+00  -3.0516537637986318e-07 8.6028388734758451e-08 0.0000000000000000e+00  -1.1767889966903350e-06 -4.3864062386417261e-07 0.0000000000000000e+00  2.0076407656098345e-06 3.4187476874953021e-07 0.0000000000000000e+00  3.4792460986089874e-01 9.6762513514082493e-02 0.0000000000000000e+00  1.6989492202547104e-06 2.0512331359792045e-07 0.0000000000000000e+00  -8.7153283467794022e-07 3.2644498940847703e-07 0.0000000000000000e+00  -1.4056115690229276e-06 3.7326236313713702e-08 0.0000000000000000e+00  -8.8852930615785997e-08 -3.9439270989970236e-07 0.0000000000000000e+00  5.8284775949940833e-08 -2.3677729777696725e-07 0.0000000000000000e+00  -1.0589650364465754e-06 -1.7636693576074112e-06 0.0000000000000000e+00  -3.2761452210518811e-06 -1.1153934402880537e-06 0.0000000000000000e+00  -4.2174524833993773e-06 -8.9781014859962031e-08 0.0000000000000000e+00  -4.2463945008005686e-06 -7.3824016449682690e-08 0.0000000000000000e+00  -4.6683636148424895e-07 2.9729073505090457e-07 0.0000000000000000e+00  2.8155067330621423e-06 -6.8255380010334104e-07 0.0000000000000000e+00  1.6583343114745835e-01 -4.5471586625260309e-07 0.0000000000000000e+00  -7.7516867968572145e-07 7.1332513690980217e-08 0.0000000000000000e+00  2.9115196005305500e-06 3.5466122700716492e-07 0.0000000000000000e+00  -4.6800880846859693e-07 -9.5760954985927674e-08 0.0000000000000000e+00  4.3504712407585632e-07 5.2476873011603594e-08 0.0000000000000000e+00  -4.1768272753319915e-07 4.7230993464928714e-09 0.0000000000000000e+00  -1.0315335185854480e-06 -1.9148403992998075e-08 0.0000000000000000e+00  -1.5062642663624882e-06 1.5111932995703063e-08 0.0000000000000000e+00  -2.5823434461562510e-06 -5.0423582516046088e-07 0.0000000000000000e+00  -9.1462752782919726e-06 -1.1149939442619758e-06 0.0000000000000000e+00  -1.0247201056679449e-06 -1.7321859510043370e-08 0.0000000000000000e+00  -1.1383390750943105e-06 -2.4403684733106566e-08 0.0000000000000000e+00  -1.3739623222932542e-06 2.4093946751132775e-07 0.0000000000000000e+00  -1.1342219214612491e-06 -2.0971767032554361e-07 0.0000000000000000e+00  -4.9546614293055385e-07 -5.1637715789290514e-10 0.0000000000000000e+00  -6.7430742329991047e-08 -1.9337100882357076e-11 0.0000000000000000e+00  2.2351244264447834e-01 9.8594389567805887e-03 0.0000000000000000e+00  2.2295083954378733e-01 6.3689976560050792e-04 0.0000000000000000e+00  1.8440248393424624e-01 -6.5931530191006482e-03 0.0000000000000000e+00  2.9266623017672511e-01 -7.9169907315423019e-02 0.0000000000000000e+00  2.2297818514365383e-01 -9.5255450253557503e-06 0.0000000000000000e+00  2.2272764895170730e-01 6.6611322227688059e-06 0.0000000000000000e+00  3.2983033066125439e-07 1.5580298183308882e-08 0.0000000000000000e+00  1.7005975441992371e-07 2.9677151710672767e-10 0.0000000000000000e+00  -5.5758701403288179e-07 7.0860203130818589e-10 0.0000000000000000e+00  1.8760912356975512e-01 -1.4148541989902353e-05 0.0000000000000000e+00  -8.0726558563223797e-07 -3.8832434360785765e-09 0.0000000000000000e+00  2.2931229363393787e-01 -7.2021456837339419e-03 0.0000000000000000e+00  -9.6888643445877154e-07 -5.1395084210179015e-08 0.0000000000000000e+00  -1.0108315226979324e-06 -3.9564052604754626e-09 0.0000000000000000e+00  -1.1291262505777155e-06 -7.5799053233172801e-08 0.0000000000000000e+00  -5.6436025363022255e-07 -1.5420088302532384e-07 0.0000000000000000e+00  -4.5725241021124790e-07 -8.2840139134682560e-08 0.0000000000000000e+00  -8.0976044641560841e-07 -6.4276836346502307e-08 0.0000000000000000e+00  -3.9281428689793705e-07 -5.6674177712684914e-08 0.0000000000000000e+00  -2.3538912559742803e-06 1.0686885923483640e-07 0.0000000000000000e+00  1.0537943765568849e-06 -3.0378912649954160e-07 0.0000000000000000e+00  -2.7558346855829423e-06 3.6809874135138548e-07 0.0000000000000000e+00  1.5510793358321784e-01 -5.4440653502546767e-02 0.0000000000000000e+00  1.9182093626192014e-06 4.3399710737348106e-07 0.0000000000000000e+00  2.1605558613348652e-01 2.6838411287722955e-03 0.0000000000000000e+00  2.6265014815478427e-01 -3.5180620473741778e-02 0.0000000000000000e+00  1.0780037444701857e-01 4.7433339081830433e-03 0.0000000000000000e+00  3.0473297130320842e-01 1.0671359626680192e-01 0.0000000000000000e+00  2.0593381157324159e-01 1.7067072076328298e-03 0.0000000000000000e+00  3.2414294997643761e-01 -8.4020294914882110e-02 0.0000000000000000e+00  1.9521708152955258e-01 1.4684422531458576e-02 0.0000000000000000e+00  7.1070187508522439e-02 5.6220655306308674e-02 0.0000000000000000e+00  2.0593417570996200e-01 8.2031383456730169e-05 0.0000000000000000e+00  2.0586189710725805e-01 -9.4295738745217462e-06 0.0000000000000000e+00  1.8751075031827408e-01 9.8863398583130224e-05 0.0000000000000000e+00  7.5234906723375711e-02 4.8939877857541857e-08 0.0000000000000000e+00  2.7319255592602687e-01 -4.6963808161481075e-09 0.0000000000000000e+00  2.1633129155948488e-01 -1.5286230528864592e-05 0.0000000000000000e+00  2.4068600800593759e-01 7.1729012296949612e-02 0.0000000000000000e+00  1.6797559712732604e-01 -6.1223170236893953e-06 0.0000000000000000e+00  1.7456501715623410e-01 1.1169499366289982e-02 0.0000000000000000e+00  1.9050307762952856e-01 4.4237748945645285e-03 0.0000000000000000e+00  2.9776202204231106e-01 -4.5442688400367970e-02 0.0000000000000000e+00  1.8278831410175539e-01 -7.6755465377127157e-06 0.0000000000000000e+00  1.8808327867400007e-01 5.5372851458339301e-04 0.0000000000000000e+00  1.6981251573973430e-01 -4.6387786703686193e-02 0.0000000000000000e+00  3.9753991075641554e-01 -4.6089723029361221e-02 0.0000000000000000e+00  3.5855824613000756e-02 1.8594885118120869e-02 0.0000000000000000e+00  1.8752925405988305e-01 -1.4421984208390758e-06 0.0000000000000000e+00  1.8494054854048561e-01 -2.4470297749337684e-02 0.0000000000000000e+00  1.9291911322743358e-01 4.4824413250479020e-03 0.0000000000000000e+00  1.6781160402520195e-01 3.4087509549702694e-03 0.0000000000000000e+00  5.4780109628983310e-02 -3.9566486830059339e-02 0.0000000000000000e+00  4.2751461821555814e-01 -3.4717487671478406e-02 0.0000000000000000e+00  -1.3134248673122663e-07 4.0317128070266052e-09 0.0000000000000000e+00  2.2222037039525552e-01 1.1560120461158135e-04 0.0000000000000000e+00  -9.3343644955080351e-07 2.2421070123412762e-08 0.0000000000000000e+00  1.9830495135574597e-01 5.0559270234890226e-04 0.0000000000000000e+00  3.3027374297248374e-01 -7.4638903704219453e-02 0.0000000000000000e+00  2.2531855859071126e-01 1.4908888299888666e-02 0.0000000000000000e+00  1.2575272837108636e-01 7.1329880863793757e-02 0.0000000000000000e+00  2.3146389439802378e-01 1.4608110634589454e-02 0.0000000000000000e+00  2.0875887556453218e-01 2.4544331260119158e-02 0.0000000000000000e+00  1.4769132891562300e-01 7.4181497454665332e-02 0.0000000000000000e+00  4.5745690752274926e-01 -1.2551099106865136e-02 0.0000000000000000e+00  6.9843480468321770e-02 3.6352323868904440e-02 0.0000000000000000e+00  -2.3849463293294817e-07 -8.4115010186676406e-08 0.0000000000000000e+00  1.4594460024768688e-01 -1.0133558103680156e-05 0.0000000000000000e+00  -1.6441435459172481e-06 -9.8230753706227787e-10 0.0000000000000000e+00  -1.2629407881467338e-06 6.9784247701533179e-09 0.0000000000000000e+00  9.3816138361723002e-07 1.7941871849230333e-09 0.0000000000000000e+00  2.2192003611719885e-01 5.0521060690789116e-03 0.0000000000000000e+00  -1.8603496469516209e-06 -1.5682289259147772e-08 0.0000000000000000e+00  4.0350087086464725e-01 4.2681918097914009e-02 0.0000000000000000e+00  3.7367422269174350e-01 7.7167063838616476e-02 0.0000000000000000e+00  1.5508796753096168e-01 9.1873392845877850e-05 0.0000000000000000e+00  3.4351667253847884e-01 1.3317368341182287e-02 0.0000000000000000e+00  -1.0235638797315974e-06 -1.0918793702991225e-08 0.0000000000000000e+00  -7.6333191026681780e-08 -2.9190025438205505e-09 0.0000000000000000e+00  7.2576109292306188e-07 3.1791834521879529e-07 0.0000000000000000e+00  1.5992828519630312e-01 -1.5902064571625053e-05 0.0000000000000000e+00  1.1321962697482768e-01 1.0607771198594546e-02 0.0000000000000000e+00  -3.1784199983126717e-07 -8.6365348116489964e-08 0.0000000000000000e+00  1.4281510626468438e-01 -2.4721868331844490e-02 0.0000000000000000e+00  1.5577253967983343e-01 1.4866947741713146e-01 0.0000000000000000e+00  3.9840745229041874e-01 -3.4787465151509628e-02 0.0000000000000000e+00  1.7048772493760792e-06 -1.8855350025021559e-07 0.0000000000000000e+00  1.0863153951656630e-01 4.9913226312730721e-02 0.0000000000000000e+00  2.2451698581471616e-01 7.9936688999317287e-03 0.0000000000000000e+00  1.6652391119535256e-01 -4.7998754561687576e-03 0.0000000000000000e+00  -2.2566622654290156e-06 4.2720320957344830e-07 0.0000000000000000e+00  5.5948128033426366e-03 -6.8208137816318541e-03 0.0000000000000000e+00  2.2067463130193968e-01 1.3602609073159128e-03 0.0000000000000000e+00  3.0615690037752735e-01 -1.0949950109023558e-01 0.0000000000000000e+00  2.5415730037402873e-01 -4.0621899783249843e-02 0.0000000000000000e+00  1.5669528138580824e-01 8.8359216349204032e-04 0.0000000000000000e+00  1.9236119702117699e-01 -8.5510828071726344e-02 0.0000000000000000e+00  2.3778472950126645e-01 2.4617286808524461e-02 0.0000000000000000e+00  4.9703673574233803e-02 2.2619165336186294e-02 0.0000000000000000e+00  1.5786311873695674e-01 -1.2505289088231354e-02 0.0000000000000000e+00  2.8631606010509413e-02 1.5618323715846814e-02 0.0000000000000000e+00  2.1149258056075398e-01 7.3509926371187022e-03 0.0000000000000000e+00  3.5473769285869101e-02 1.6207031451784797e-02 0.0000000000000000e+00  1.0227661194314049e-01 -2.0010980754442718e-02 0.0000000000000000e+00  -9.6448801275944229e-07 -1.2700574291225905e-07 0.0000000000000000e+00  -3.3851981599009391e-07 -3.3551462544218671e-08 0.0000000000000000e+00  -7.3471507255458240e-07 3.8132213694175780e-07 0.0000000000000000e+00  3.6914748255726892e-01 -5.9360339065653106e-02 0.0000000000000000e+00  7.8057716270626715e-02 3.1274267085279223e-02 0.0000000000000000e+00  -2.2041700691296949e-06 -9.9987481954307134e-08 0.0000000000000000e+00  -9.4148769957186928e-07 -3.3157746386038095e-08 0.0000000000000000e+00  1.4978209058293429e-01 1.2794873891764822e-03 0.0000000000000000e+00  2.1355524098101564e-01 3.0116170665539288e-04 0.0000000000000000e+00  -7.1308047499612197e-07 -9.6027397117274249e-10 0.0000000000000000e+00  -5.9822444360056287e-07 -2.0052055687246697e-08 0.0000000000000000e+00  -1.7411581590337599e-06 -1.6860597771339136e-07 0.0000000000000000e+00  -1.4388633069629224e-07 -7.7166663062445153e-10 0.0000000000000000e+00  -9.8208468405299302e-08 7.2442703558456864e-11 0.0000000000000000e+00  3.9547555085042325e-07 -1.7136051355419212e-08 0.0000000000000000e+00  -2.1478217949016467e-06 -2.5823730547499605e-07 0.0000000000000000e+00  -7.8158381691053820e-07 -1.5526302282610536e-07 0.0000000000000000e+00  -3.9633252322297210e-07 -4.8138842766290221e-08 0.0000000000000000e+00  2.6903326516049940e-06 -6.1597757522327257e-07 0.0000000000000000e+00  1.4959533785138256e-07 -7.0229460101967650e-09 0.0000000000000000e+00  -9.0175463499616057e-07 4.9833304832121039e-10 0.0000000000000000e+00  -3.1090290642244245e-07 -1.5420936967228259e-11 0.0000000000000000e+00  1.5771833223176889e-02 1.7442527017913004e-02 0.0000000000000000e+00  9.9494374131964783e-02 8.3108154346612662e-03 0.0000000000000000e+00  1.4289578821439422e-01 -2.0477149105823659e-02 0.0000000000000000e+00  1.4257211312776349e-01 5.0488437015338606e-04 0.0000000000000000e+00  2.9174953833590667e-01 7.6337470163649085e-02 0.0000000000000000e+00  3.3646651914891712e-01 5.3654338795273905e-02 0.0000000000000000e+00  3.1539765743238263e-01 2.6343304902319179e-02 0.0000000000000000e+00  1.5103907372170189e-01 1.9687400867898966e-06 0.0000000000000000e+00  2.2256420387227693e-01 2.5349861013319267e-03 0.0000000000000000e+00  2.5508025797219414e-01 -2.0405410207039391e-02 0.0000000000000000e+00  1.0845132358444194e-01 7.4185039544624898e-03 0.0000000000000000e+00  2.2250491961475197e-01 -1.3711446955643781e-05 0.0000000000000000e+00  2.2288168979464601e-01 -1.5805951685343780e-05 0.0000000000000000e+00  2.1499630651314872e-01 -1.1937273176231025e-05 0.0000000000000000e+00  2.2063236671410147e-01 3.8786449640574324e-05 0.0000000000000000e+00  1.3471186392881415e-01 9.8517100740690704e-06 0.0000000000000000e+00  1.4319401630257153e-01 -1.3306332955237012e-07 0.0000000000000000e+00  1.9972988671855241e-01 1.8925046693993192e-01 0.0000000000000000e+00  4.4725938407174634e-02 5.2746911052430262e-02 0.0000000000000000e+00  8.7318025422173789e-02 9.5900520419871758e-04 0.0000000000000000e+00  2.2004973414478116e-01 -5.3212096914718298e-03 0.0000000000000000e+00  1.8294716051596344e-01 2.3717951200486810e-03 0.0000000000000000e+00  2.1999981555163325e-01 1.2012448712444674e-03 0.0000000000000000e+00  2.4459000774061662e-01 9.2795739530163852e-04 0.0000000000000000e+00  2.1278922002326298e-01 -1.0178650815339005e-05 0.0000000000000000e+00  1.3769189616714175e-01 3.8587186078036803e-03 0.0000000000000000e+00  2.2147224911044044e-01 6.3475350828644025e-03 0.0000000000000000e+00  3.0202569673263313e-01 -7.9326516812680922e-02 0.0000000000000000e+00  1.3859653891615567e-01 1.0302709190323685e-04 0.0000000000000000e+00  2.1532504948585435e-01 3.4570807673562953e-04 0.0000000000000000e+00  1.3599273045841959e-01 5.1997917518224156e-06 0.0000000000000000e+00  1.6204451369515213e-01 7.9772457408952321e-02 0.0000000000000000e+00  2.4641368309145409e-01 1.2976951729743685e-01 0.0000000000000000e+00  2.1882338670879897e-01 3.0940587536858612e-02 0.0000000000000000e+00  9.4922777072659795e-02 -1.0585464066125079e-02 0.0000000000000000e+00  3.2870876335829319e-01 -9.9064394713481663e-02 0.0000000000000000e+00  1.8583423480080954e-01 -4.4252356353790077e-03 0.0000000000000000e+00  3.9224578715202191e-01 1.8163637142875815e-02 0.0000000000000000e+00  2.1328966113993852e-01 1.3286684827845960e-02 0.0000000000000000e+00  1.9139577246069797e-01 1.7972745344924386e-02 0.0000000000000000e+00  3.4167430169890511e-01 1.8305914653065022e-01 0.0000000000000000e+00  2.7572579586470791e-01 3.6026171318965849e-02 0.0000000000000000e+00  2.3182733633720345e-01 7.2467267530954727e-02 0.0000000000000000e+00  2.2290928373159646e-01 2.8787335116495759e-04 0.0000000000000000e+00  2.0041162149657477e-01 -2.0713523689433032e-05 0.0000000000000000e+00  2.1629382188287855e-01 -3.4884795459543528e-06 0.0000000000000000e+00  3.0317990638251391e-01 -3.6473634139463758e-02 0.0000000000000000e+00  1.2582892713798977e-01 2.5583975941522053e-02 0.0000000000000000e+00  1.2292323107719402e-01 1.5919701717929786e-03 0.0000000000000000e+00  2.0877395580779007e-01 2.1375143909980344e-02 0.0000000000000000e+00  1.5979096706010357e-01 4.8539797268281358e-02 0.0000000000000000e+00  2.1795212865346059e-01 7.6788222956478335e-03 0.0000000000000000e+00  1.4407985405976870e-01 2.9574678737244640e-03 0.0000000000000000e+00  1.0860407680050513e-01 -4.7966950629709577e-02 0.0000000000000000e+00  4.6465173045527797e-01 4.3621322322985365e-02 0.0000000000000000e+00  1.4254011387894680e-01 -7.3660404583358485e-02 0.0000000000000000e+00  3.4155634427080966e-01 -4.2268873334740865e-02 0.0000000000000000e+00  2.0454297474305688e-01 -3.9530833091130548e-07 0.0000000000000000e+00  2.3220756723000577e-01 -1.6052785590932116e-02 0.0000000000000000e+00  2.0217765234046961e-01 2.9472142703648035e-03 0.0000000000000000e+00  2.1596199674993383e-01 7.3337824396560117e-03 0.0000000000000000e+00  2.0875869980126596e-01 -2.7949054912816056e-02 0.0000000000000000e+00  -1.1021821108026313e-02 9.6654942914163617e-03 0.0000000000000000e+00  1.0754454512125167e-01 1.5195874096256233e-04 0.0000000000000000e+00  9.0879427507635127e-02 -1.4927860713945557e-02 0.0000000000000000e+00  9.8993087405579772e-02 2.1843282874230072e-02 0.0000000000000000e+00  6.2822439144481004e-02 1.7693793431072764e-02 0.0000000000000000e+00  1.9966730420685380e-01 1.3155639067395882e-05 0.0000000000000000e+00  1.1507743982528749e-01 -6.9127327764782968e-06 0.0000000000000000e+00  4.0388385263478560e-01 -3.9117846179790312e-02 0.0000000000000000e+00  2.1637940070748257e-01 6.6779172901380195e-04 0.0000000000000000e+00  2.0610961773244385e-01 4.6524764977252174e-05 0.0000000000000000e+00  3.5785433921781677e-02 8.9774413090806375e-08 0.0000000000000000e+00  7.4302753457266044e-02 -6.8432141048476950e-03 0.0000000000000000e+00  1.5904047691288398e-01 4.2137180252101364e-02 0.0000000000000000e+00  2.1918772933314210e-01 3.7249937521527976e-05 0.0000000000000000e+00  2.0411834525309910e-01 1.3423343399356501e-03 0.0000000000000000e+00  1.2682592021641401e-01 -1.1647238655606665e-02 0.0000000000000000e+00  2.7944493449941266e-01 -5.3958577183899945e-02 0.0000000000000000e+00  3.8087531703515554e-01 3.5696038656949494e-02 0.0000000000000000e+00  1.2807581403145687e-01 1.5437038050073002e-03 0.0000000000000000e+00  1.0574096919159975e-01 1.3544875369991255e-04 0.0000000000000000e+00  1.1806668220553274e-01 -1.1030696923159156e-05 0.0000000000000000e+00  -5.2110726644366391e-03 1.4258183446466713e-02 0.0000000000000000e+00  3.3356380675177749e-01 1.5991848762366449e-08 0.0000000000000000e+00  1.0186107299854934e-01 3.8394028629821914e-03 0.0000000000000000e+00  3.8951287479542140e-01 3.6698528902371300e-03 0.0000000000000000e+00  1.2227302986568407e-01 -1.0463350950189560e-05 0.0000000000000000e+00  2.4045759946384654e-01 -5.1529996920348028e-02 0.0000000000000000e+00  1.1852650560027568e-01 -3.8877497091970395e-08 0.0000000000000000e+00  2.1633323894790746e-01 2.2719566827318025e-07 0.0000000000000000e+00  1.1803539283717078e-01 6.4500670594239683e-06 0.0000000000000000e+00  2.1733315891843860e-01 -5.3725712006217998e-08 0.0000000000000000e+00  1.1810722462050581e-01 2.1420640175952249e-05 0.0000000000000000e+00  1.9521361598135506e-01 8.1434083509532677e-03 0.0000000000000000e+00  2.2029068278593855e-01 -8.0171860188586144e-06 0.0000000000000000e+00  1.1791977972132024e-01 -8.1313412629723334e-03 0.0000000000000000e+00  1.0218108903123703e-01 6.2301867057512085e-04 0.0000000000000000e+00  2.0452345592038021e-01 2.9495137707129319e-04 0.0000000000000000e+00  -5.6383746035345321e-03 -9.5090478322109387e-03 0.0000000000000000e+00  3.1183727152661833e-01 -1.6045015683178305e-02 0.0000000000000000e+00  2.8639222202926728e-01 -1.6972542466834915e-02 0.0000000000000000e+00  4.1026836267939049e-01 -4.4540075506248451e-02 0.0000000000000000e+00  1.0915013900078722e-01 7.1489754375371798e-04 0.0000000000000000e+00  2.9210753075445595e-01 -3.6130545494288596e-02 0.0000000000000000e+00  2.7987027222890543e-01 -1.8717002761787879e-02 0.0000000000000000e+00  1.9423968152398788e-01 -7.7027698054092455e-06 0.0000000000000000e+00  2.4354823895246250e-01 -7.3942648670841590e-02 0.0000000000000000e+00  8.9999866813988846e-02 -2.6622703902598234e-07 0.0000000000000000e+00  1.6481018125904692e-01 -1.3009926682370655e-02 0.0000000000000000e+00  2.616072384227573