<?xml version="1.0"?>
<VTKFile type="UnstructuredGrid"  version="0.1"  >
<UnstructuredGrid>
<Piece  NumberOfPoints="1404" NumberOfCells="2604">
<Points>
<DataArray  type="Float64"  NumberOfComponents="3"  format="ascii">0 0.41 0  0 0 0  2.2 0 0  2.2 0.41 0  0.2353553390593274 0.2353553390593274 0  0.25 0.2 0  0.2353553390593274 0.1646446609406726 0  0.2 0.15 0  0.1646446609406726 0.1646446609406726 0  0.15 0.2 0  0.1646446609406726 0.2353553390593274 0  0.2 0.25 0  0.6923879532511287 0.188268343236509 0  0.7 0.15 0  0.6923879532511287 0.1117316567634909 0  0.6707106781186547 0.07928932188134523 0  0.6382683432365089 0.05761204674887133 0  0.6 0.04999999999999999 0  0.5617316567634909 0.05761204674887134 0  0.5292893218813453 0.07928932188134524 0  0.5076120467488713 0.111731656763491 0  0.5 0.15 0  0.5076120467488713 0.188268343236509 0  0.5292893218813453 0.2207106781186547 0  0.561731656763491 0.2423879532511287 0  0.6 0.25 0  0.6382683432365089 0.2423879532511287 0  0.6707106781186547 0.2207106781186547 0  1.1 0 0  0 0.205 0  1.1 0.41 0  0.55 0 0  0.55 0.41 0  0.275 0 0  0.8250000000000001 0 0  0.275 0.41 0  0.8250000000000001 0.41 0  0.6875 0 0  0.61875 0 0  1.65 0.41 0  1.65 0 0  1.375 0 0  1.375 0.41 0  1.925 0 0  1.925 0.41 0  1.5125 0.205 0  1.7875 0.205 0  0.9625000000000001 0.205 0  1.2375 0.205 0  2.2 0.205 0  1.99375 0.2152743902439024 0  0.4125 0.41 0  2.0625 0 0  2.0625 0.41 0  2.2 0.3075 0  1.7875 0.41 0  1.375 0.1486128048780488 0  1.5125 0 0  1.7875 0 0  1.5125 0.41 0  0.9625000000000001 0.41 0  0.4125 0 0  0.1375 0 0  0.1375 0.41 0  0.6875 0.41 0  0.9625000000000001 0 0  1.2375 0 0  1.1 0.1486128048780488 0  1.2375 0.41 0  1.65 0.1486128048780487 0  0.823495464168302 0.2603780552348366 0  0.3738707794507017 0.2720196349488618 0  0.3662291281331582 0.1311456406657909 0  1.676715909090909 0.2793064024390244 0  1.126715909090909 0.2793064024390244 0  1.348284090909091 0.2793064024390244 0  0.8287581077665108 0.1302150898054257 0  1.894702181800738 0.1282910975492754 0  2.092797818199262 0.1282910975492754 0  1.85625 0.3075 0  0 0.3075 0  0 0.1025 0  2.099172119769978 0.25625 0  0.4752414543992246 0.3180372603390748 0  1.99375 0.08395950269330846 0  1.459960956013612 0.3075 0  1.569025960719943 0.2986889805672169 0  1.03125 0.3278689922742084 0  1.959375 0.3126371951219512 0  1.749222215368287 0.1025 0  1.275777784631713 0.1025 0  0.9228016959331474 0.3075 0  1.000777784631713 0.1025 0  2.2 0.1025 0  1.225938124459196 0.3075 0  1.550777784631713 0.1025 0  1.44375 0.07430640243902442 0  1.16875 0.07430640243902439 0  0.7562500000000001 0.3358727844323386 0  0.89375 0 0  1.899250267340833 0.2229966846119207 0  0.61875 0.41 0  1.766482954545455 0.2934032012195123 0  1.046078563095834 0.2389031808701145 0  1.421109702350723 0.2261157654379721 0  0.07567171807980319 0.25625 0  0.2511897295290552 0.3235829392832554 0  0.07655002503762308 0.1488653460959645 0  0.1377245246847496 0.3206030474919778 0  0.6694099692696568 0.3242771941727899 0  0.9168971191497528 0.1295727156104653 0  0.7562500000000001 0 0  2.118919042110979 0.3422084711244843 0  2.13125 0 0  0.06875000000000001 0 0  1.30625 0.41 0  1.597888256393107 0.2173787389261347 0  0.34375 0.41 0  0.2493272016354703 0.08091360081773515 0  0.5588896233436766 0.3264056208677571 0  1.829299675393195 0.07400700849299596 0  0.1334079128307869 0.08523463035786674 0  1.71875 0.41 0  0.06875000000000001 0.41 0  1.16875 0.41 0  2.038220665644273 0.332420740103091 0  0.8810647413215221 0.2027360103977071 0  0.34375 0 0  0.7453891198966415 0.2471459041008237 0  0.42112093004955 0.1988123139090554 0  0.8314023090855964 0.3351170841770613 0  0.89375 0.41 0  0.7906250000000001 0.06615386481594063 0  1.452769549894695 0.1548122580621249 0  1.369219062229598 0.07430640243902442 0  1.30625 0 0  1.07420695807087 0.07430640243902439 0  1.720943423819132 0.1714577452753128 0  1.157188124459196 0.205 0  1.304056576180868 0.1714577452753128 0  1.67579304192913 0.07430640243902437 0  1.209670467133757 0.136210026696477 0  0.4312800784902823 0.08036147352247747 0  0.8723959680194693 0.07066860609690805 0  1.025335513626278 0.1700681449722324 0  0.7945632284247136 0.1940204203251442 0  0.378125 0.3452261501101892 0  0.3307109909790086 0.2037165635083759 0  0.3009701032039409 0.2702970083403109 0  0.20625 0.41 0  1.58125 0 0  0.4812500000000001 0 0  0.9838963872396855 0.2722244191167347 0  0.06772484939107212 0.3260067317374387 0  0.20625 0 0  1.58125 0.41 0  1.631724228912893 0.3381867502687533 0  1.825608881788174 0.14499488549201 0  1.85625 0 0  1.44375 0 0  1.44375 0.41 0  1.85625 0.41 0  2.13125 0.41 0  0.7562500000000001 0.41 0  0.4812500000000001 0.41 0  1.16875 0 0  1.03125 0.41 0  1.03125 0 0  1.71875 0 0  1.99375 0 0  1.99375 0.41 0  0.9408708167433545 0.0651989315768642 0  1.340625 0.3489494290853124 0  1.134375 0.3489494290853123 0  1.700180620188976 0.3438659752031281 0  0.29668452290037 0.1318471691375986 0  0.3175441051360096 0.06496934809856265 0  0.06509151636162461 0.08140814015999148 0  2.135782184673599 0.07126652247502523 0  1.668441847249787 0.2129203728327609 0  1.295782514339747 0.2378437748815763 0  1.409375 0.3520314716057996 0  2.129248544730567 0.1906135162504124 0  2.060771381434487 0.1989445750470348 0  2.013252586573865 0.1496169464686054 0  1.942766402200229 0.1734448904596831 0  1.895522487186454 0.06076163953489683 0  2.069553871656643 0.06605731020975725 0  0.4670911801404742 0.2498408582391372 0  0.7622743084658112 0.1264100838268133 0  1.274680914880868 0.3520219391081363 0  0.3148669572599245 0.3331753056385887 0  1.614713220494657 0.09473434380863296 0  1.72990325744076 0.2380068107952482 0  1.356580098625191 0.2120393231351682 0  2.034370752044885 0.2668681600792073 0  1.51768709249349 0.3426260931494756 0  1.561883724969884 0.1650446847858835 0  1.197344062229598 0.2523725417393646 0  1.804085235518364 0.3468178408964637 0  1.817887819205233 0.2589243285818559 0  1.905897727272727 0.3485060975609756 0  0.7296439733931823 0.06337466644369745 0  0.4250935971865949 0.1394919578475796 0  0.3773030136511669 0.05130372097998036 0  1.192836486056382 0.3562350748565544 0  1.1029124365364 0.226143510831178 0  1.28257088594801 0.2944411014911587 0  0.1905185804731426 0.06029880676029167 0  1.474860187679412 0.2504218616229368 0  1.406767003493824 0.2829282258560709 0  0.5209826960981064 0.2830664557824064 0  0.5131119502780163 0.3617405848213254 0  0.1948220106098172 0.3081993407644811 0  1.845656689180403 0.1998310418452388 0  2.144958525570388 0.2909790873294231 0  2.2 0.15375 0  0.8833025251326762 0.2625402923007629 0  0.171875 0.3653875762360952 0  1.57794966442982 0.3540357145964566 0  0.446875 0.366068291212731 0  0.4272051715206439 0.2891929346190664 0  1.508991196088596 0.1421783375065625 0  1.50436820029908 0.06143401634903343 0  1.223857000523521 0.08235548624535324 0  0.6137904613287555 0.3066826366281556 0  1.153316824384777 0.1289850171317838 0  0.9751573703656133 0.327632618473408 0  2.148922302309752 0.1258841779285271 0  0.9281250000000001 0.3643758685795699 0  1.621993280276081 0.2841214267927899 0  1.550118654119087 0.2461998729100966 0  1.327182649291491 0.1216967252533594 0  0.9939955742738924 0.04663549843168518 0  1.753125 0.04556020050186112 0  1.271875 0.04556020050186116 0  0.9734326767716519 0.1506854560854393 0  0.103125 0.3675775577080512 0  1.94956388244759 0.1180512551534177 0  1.949997712993411 0.04965831614304109 0  0.717433898748555 0.295596016333797 0  1.771961817615021 0.1530278789497521 0  1.909246823951428 0.2812757146784527 0  0 0.35875 0  1.050632804931928 0.1226269704412814 0  0.05695108326502596 0.2024009637347154 0  1.948575539857022 0.2445328248721197 0  1.697271520964565 0.1233917627620729 0  1.065625 0.3689344961371042 0  1.085849084308977 0.3170853572226867 0  0.1015495998772944 0.04226029099983852 0  1.577403511714593 0.05463601888079143 0  1.751571320346033 0.3651102912045228 0  2.2 0.35875 0  0.7441773632462837 0.1786786606458751 0  0 0.05125 0  1.466879772203159 0.3611261772912453 0  0.6282230348858767 0.3577675483994025 0  1.990280163552011 0.3564754268533217 0  1.17471064520912 0.2990917256188288 0  0 0.25625 0  2.2 0.25625 0  2.2 0.05125 0  0 0.15375 0  1.853978576207987 0.35875 0  1.515638456102889 0.2882700110184686 0  2.150453692751374 0.2387066338105111 0  1.323782677156475 0.04897634338873398 0  1.409375 0.03715320121951221 0  1.406484531114799 0.1087852750766809 0  1.134375 0.03715320121951219 0  0.721875 0.3729363922161693 0  0.7941695928236929 0.3696489254637395 0  0.7934827162619036 0.3013409431456604 0  1.627401732573545 0.04552157221025036 0  0.9352049974617431 0.2507047965699472 0  0.8763260682738339 0.3611103317460093 0  2.045405893604797 0.1105340662939892 0  1.255408269734577 0.1577307500159216 0  2.028125 0.03707597992059326 0  1.003030137506755 0.3689344961371042 0  1.248258025468107 0.2565907092181813 0  1.203125 0.03661323374043041 0  0.4800125512335631 0.0549472816999725 0  2.072662025974815 0.2975086504196739 0  0.240625 0.3729825336867542 0  1.113252391110535 0.10238286244357 0  1.071052763974265 0.1885202618768825 0  0.8738809401657862 0.3106483608284829 0  0.6786819423003397 0.2677558482644021 0  1.887722846421017 0.1760882698830035 0  1.472640588990488 0.1118278026240017 0  0.5843750000000001 0.41 0  1.865937103925594 0.2604137786483804 0  1.463913572748262 0.2030442564990043 0  1.376426316059077 0.3186741374914345 0  0.1038643885363755 0.2162701735320032 0  0.1769473813227781 0.1070849728467114 0  0.458787839809176 0.171541653775316 0  0.240625 0 0  0.04179569703428024 0.2877217852556549 0  0.1258346557601885 0.2699740073054968 0  1.722140693354707 0.282908100935778 0  0.41206179117512 0.2448172567039922 0  0.3702471778075604 0.2265217604228704 0  0.3714881805374215 0.1786967818665642 0  1.77397096061971 0.2481483237422926 0  2.105123889160691 0.03743885948498647 0  1.001138337938679 0.229719337663998 0  1.051242910646791 0.2854826559431138 0  1.395420985247586 0.18
[...]
<PointData  Vectors="f_37"> 
<DataArray  type="Float64"  Name="f_37"  NumberOfComponents="3" format="ascii">2.7128205535176063e-07 8.6489448570917476e-08 0.0000000000000000e+00  -4.0972619218114228e-06 -6.9744458135594180e-07 0.0000000000000000e+00  -1.1343812675536265e-06 3.1722809999314698e-09 0.0000000000000000e+00  -1.4064204492797296e-06 -2.8311427057150172e-09 0.0000000000000000e+00  3.6909319137090379e-06 -1.5348078851648286e-06 0.0000000000000000e+00  2.8587421574262280e-06 -8.6767204008355268e-07 0.0000000000000000e+00  6.6163612327268278e-07 6.7037070915301719e-09 0.0000000000000000e+00  -2.7254009164584148e-06 1.9495375458424122e-06 0.0000000000000000e+00  5.6614308035385399e-06 -5.9838316762870077e-07 0.0000000000000000e+00  -2.2416907027492582e-06 -6.0896438825811144e-06 0.0000000000000000e+00  -1.6637670834954791e-06 8.4936838791155660e-07 0.0000000000000000e+00  3.0882081857082058e-06 7.4849890804561322e-07 0.0000000000000000e+00  3.7852892320645917e-06 -7.2541922864228661e-06 0.0000000000000000e+00  1.6447544672883709e-06 -3.0217789679864834e-06 0.0000000000000000e+00  4.5928821001869274e-07 -3.7985575805927831e-07 0.0000000000000000e+00  2.8258624177146987e-06 1.3184401451845949e-06 0.0000000000000000e+00  5.5644591347387127e-06 4.6473886050851074e-07 0.0000000000000000e+00  3.1456744323033403e-01 8.4099324690749488e-02 0.0000000000000000e+00  1.1619409523197841e-06 -1.4377362104560629e-06 0.0000000000000000e+00  -2.4822425666836655e-06 -2.1153453938425977e-07 0.0000000000000000e+00  -2.0361823472476577e-06 -3.1544706341244419e-06 0.0000000000000000e+00  2.6682356437373307e-06 7.2933766430825438e-06 0.0000000000000000e+00  6.3745312451758604e-06 6.2074150225818927e-06 0.0000000000000000e+00  3.3812947102648602e-06 -6.3594322849784800e-06 0.0000000000000000e+00  -6.5040489485981967e-06 -5.9584815157623184e-06 0.0000000000000000e+00  -9.6954288477997902e-06 3.4069871254586854e-07 0.0000000000000000e+00  -8.0667629035265904e-06 2.9011361745562527e-06 0.0000000000000000e+00  3.1110711080747578e-06 -2.9979611741419749e-06 0.0000000000000000e+00  -1.2181991756101584e-06 4.6772195786822711e-08 0.0000000000000000e+00  1.6583332915532040e-01 -1.0053231775705744e-06 0.0000000000000000e+00  -1.6352851631495923e-06 -1.0434296220894066e-08 0.0000000000000000e+00  4.2912855742723908e-06 -1.5041699007306388e-06 0.0000000000000000e+00  -3.3391438629935048e-07 -4.2920483214631479e-07 0.0000000000000000e+00  3.3452597282764290e-07 -1.9021564518811175e-07 0.0000000000000000e+00  -1.6543859244462552e-06 -4.4007058934852506e-08 0.0000000000000000e+00  -7.7314196859472231e-07 -4.3315763110012049e-07 0.0000000000000000e+00  6.0746667714671134e-07 3.8028562987192809e-07 0.0000000000000000e+00  -1.1404360608496376e-06 -1.6358279808979171e-07 0.0000000000000000e+00  -4.1179049424373446e-06 -1.3284039880180500e-06 0.0000000000000000e+00  -1.5530913001246735e-06 9.4174366094949526e-10 0.0000000000000000e+00  -2.0327375449613691e-06 -4.0784083139035674e-09 0.0000000000000000e+00  -1.2793009625194996e-06 -3.0198251304120963e-09 0.0000000000000000e+00  -7.5910121435662313e-07 -4.2171908215687827e-09 0.0000000000000000e+00  -1.0001056359570600e-06 1.2666891381940430e-09 0.0000000000000000e+00  -3.8071482840353594e-07 -2.3633465081977084e-09 0.0000000000000000e+00  1.9532253571462738e-01 -8.7332220839777492e-05 0.0000000000000000e+00  1.9531630161640620e-01 4.0362270360606829e-06 0.0000000000000000e+00  1.9776376061782591e-01 -4.1909485494185494e-02 0.0000000000000000e+00  1.9542140470714794e-01 -2.1899326604868435e-03 0.0000000000000000e+00  1.9532948126269092e-01 -1.7355108980392143e-05 0.0000000000000000e+00  1.9532390001436312e-01 -3.4220942138125518e-06 0.0000000000000000e+00  -4.6761847716935781e-07 1.2280445652904911e-07 0.0000000000000000e+00  -2.6796432204854349e-07 3.4448424745862089e-09 0.0000000000000000e+00  -1.0545832226332998e-06 4.7936339498654828e-09 0.0000000000000000e+00  1.9181397133245487e-01 6.8315061129435816e-08 0.0000000000000000e+00  -1.4080327256459652e-06 -2.1138187703285191e-09 0.0000000000000000e+00  1.9489953987906211e-01 -3.8544705458685763e-04 0.0000000000000000e+00  -1.9421430029723743e-06 3.5571172293990140e-10 0.0000000000000000e+00  -1.6745112754524047e-06 -1.7747515982759122e-09 0.0000000000000000e+00  -1.1968130749113335e-06 -3.6598598456165067e-09 0.0000000000000000e+00  -2.5944535805103014e-06 -1.0057333368204675e-07 0.0000000000000000e+00  -1.7795538167875556e-06 -4.3443516411204208e-08 0.0000000000000000e+00  -8.2968414045865641e-08 1.6077136535665588e-07 0.0000000000000000e+00  -1.0419727630249781e-06 4.6954582146812292e-07 0.0000000000000000e+00  -1.0380330293472885e-06 -2.9817660071896891e-08 0.0000000000000000e+00  -2.3397987648162803e-06 1.5253334613396707e-07 0.0000000000000000e+00  4.6122141912274414e-07 -2.0937401135188901e-09 0.0000000000000000e+00  1.9049790764990407e-01 -8.4849124524476911e-03 0.0000000000000000e+00  -5.6648522810163727e-07 -3.7130650672823031e-09 0.0000000000000000e+00  1.9518229294416065e-01 -1.3547588784426937e-05 0.0000000000000000e+00  2.9953490378992254e-01 -1.2539622604401593e-01 0.0000000000000000e+00  1.3924902546043430e-01 3.4063416684041482e-02 0.0000000000000000e+00  2.7018145507272834e-01 1.1455218839825540e-01 0.0000000000000000e+00  1.9479647261297467e-01 5.5994503863409599e-07 0.0000000000000000e+00  1.9996698230148521e-01 -4.5847445086036305e-03 0.0000000000000000e+00  1.9527678953093192e-01 -4.1980023191019733e-04 0.0000000000000000e+00  7.7581288163714762e-02 -2.8900283233620355e-02 0.0000000000000000e+00  1.9468959257274007e-01 1.9537190091751364e-05 0.0000000000000000e+00  1.9465712433734192e-01 -5.6335267115203420e-06 0.0000000000000000e+00  1.9183787782817835e-01 -4.3180441486985917e-06 0.0000000000000000e+00  7.5234617606852947e-02 1.1949565288394883e-06 0.0000000000000000e+00  2.7319277267827319e-01 -8.3436582863139300e-07 0.0000000000000000e+00  1.9523667229540420e-01 -8.9918298964987381e-06 0.0000000000000000e+00  2.8841976368737882e-01 8.0573734642692421e-02 0.0000000000000000e+00  1.8538278468652150e-01 -1.6522930896703006e-05 0.0000000000000000e+00  1.9195784381407033e-01 -3.3776216089699712e-05 0.0000000000000000e+00  1.9333848082603866e-01 -1.1510931183665437e-05 0.0000000000000000e+00  1.9811134257905777e-01 -4.2586232044701886e-03 0.0000000000000000e+00  1.9060568546175027e-01 -7.7117965666177342e-07 0.0000000000000000e+00  1.9184942918809691e-01 -7.2034022823226124e-07 0.0000000000000000e+00  1.9064741022624157e-01 -7.2462051509839160e-04 0.0000000000000000e+00  2.4492892642489031e-01 -2.5942330843221444e-02 0.0000000000000000e+00  1.7172618499755782e-01 -1.5402808395372232e-02 0.0000000000000000e+00  1.9185654006687652e-01 -2.0637174529373781e-05 0.0000000000000000e+00  1.9376899437005607e-01 -1.0352530628763425e-03 0.0000000000000000e+00  1.9169313588162468e-01 -1.1139638789552737e-05 0.0000000000000000e+00  1.7896503299722658e-01 -1.9994570012793739e-05 0.0000000000000000e+00  1.7580558839755700e-01 -1.4590843206773131e-03 0.0000000000000000e+00  3.7670217415081175e-01 -6.9944865025325931e-02 0.0000000000000000e+00  -2.7265507027965087e-06 1.3850619908346310e-07 0.0000000000000000e+00  1.9533178634294959e-01 2.0069095098203970e-06 0.0000000000000000e+00  1.1608130727181376e-08 -1.4781272237435150e-07 0.0000000000000000e+00  1.9381562708792882e-01 3.3011344493057418e-05 0.0000000000000000e+00  2.0273066200141260e-01 -1.5221219757421843e-02 0.0000000000000000e+00  1.9539218897406727e-01 -2.5556642042745499e-04 0.0000000000000000e+00  1.3026713922183872e-01 7.0844890026073803e-02 0.0000000000000000e+00  2.3899584911715072e-01 8.3328219644788048e-03 0.0000000000000000e+00  2.0860215168501314e-01 2.8103484397977319e-02 0.0000000000000000e+00  1.4831610733543069e-01 9.3897265001105581e-02 0.0000000000000000e+00  4.5435130191006734e-01 -4.5134349965404080e-02 0.0000000000000000e+00  1.5256128948933029e-01 -3.9208258480782784e-02 0.0000000000000000e+00  -2.5179603903964723e-07 1.9772610435017209e-07 0.0000000000000000e+00  1.7323521671120307e-01 1.3721002597285993e-05 0.0000000000000000e+00  -2.3537766718605287e-06 -1.1117996536585743e-08 0.0000000000000000e+00  -5.1661528758450666e-07 -4.2399347228844410e-08 0.0000000000000000e+00  -5.0181635730298575e-07 -3.1233414869918228e-09 0.0000000000000000e+00  1.9531818752827657e-01 -2.1760569238546435e-05 0.0000000000000000e+00  -1.8807513351560688e-06 1.7103543878359142e-07 0.0000000000000000e+00  3.9129192939371432e-01 5.6055535083783477e-02 0.0000000000000000e+00  4.0108704170940546e-01 6.2600352363596165e-02 0.0000000000000000e+00  1.7890289131665515e-01 -1.9597048399712595e-05 0.0000000000000000e+00  3.4213976608902175e-01 1.9087362672611036e-02 0.0000000000000000e+00  -1.6321539543919470e-06 7.6215602944572602e-11 0.0000000000000000e+00  1.9772508941957960e-06 9.6097045836875386e-07 0.0000000000000000e+00  -1.0729380449008596e-06 -2.1082622456957518e-09 0.0000000000000000e+00  1.8153151839395382e-01 -3.9184179623508895e-06 0.0000000000000000e+00  1.8491879602089892e-01 -9.5517033765611187e-02 0.0000000000000000e+00  2.1353595674410512e-07 -4.9404783509185473e-07 0.0000000000000000e+00  2.3748071108018037e-01 -9.0818187972862147e-02 0.0000000000000000e+00  1.5130273527189775e-01 1.5632632396939908e-01 0.0000000000000000e+00  2.8898601524540918e-01 -4.6435529031054835e-02 0.0000000000000000e+00  -2.7256586934422864e-07 -3.2613575173479063e-07 0.0000000000000000e+00  1.2284771890685378e-01 2.9805200062053405e-02 0.0000000000000000e+00  1.9513258533270839e-01 -1.4335243295278828e-04 0.0000000000000000e+00  1.7877433313432531e-01 -9.5114854691795349e-05 0.0000000000000000e+00  -2.5775906774017276e-07 -6.8668286292513282e-10 0.0000000000000000e+00  1.6976644912291453e-01 -4.5563711065987117e-03 0.0000000000000000e+00  1.9528606710176694e-01 -4.9658262941193502e-06 0.0000000000000000e+00  1.9566872978838390e-01 -5.1909923466537632e-03 0.0000000000000000e+00  1.9494443436814141e-01 -1.0067584007009433e-03 0.0000000000000000e+00  1.7906368484262547e-01 -1.5881542906057857e-05 0.0000000000000000e+00  1.9306506571290472e-01 -2.3442817337815283e-03 0.0000000000000000e+00  1.9464763231285478e-01 5.6202703672564519e-03 0.0000000000000000e+00  1.2209272684321842e-01 -1.0521306122390986e-02 0.0000000000000000e+00  1.8951255793465105e-01 -2.0208159265099952e-02 0.0000000000000000e+00  9.5891632938763557e-02 -8.4926495068544258e-02 0.0000000000000000e+00  2.2888735460151224e-01 1.2265795485953206e-02 0.0000000000000000e+00  5.8842684845493619e-02 6.2922241855375094e-02 0.0000000000000000e+00  9.9548299347704455e-02 -1.7585920260669814e-02 0.0000000000000000e+00  -3.2463680597052594e-06 -9.0045459573801921e-07 0.0000000000000000e+00  -9.7808033562507827e-07 -4.1317833691556416e-09 0.0000000000000000e+00  -2.7466534083845617e-06 5.3407742355228660e-07 0.0000000000000000e+00  2.1910137730414120e-01 -2.2779198352084581e-02 0.0000000000000000e+00  7.7547856856587785e-02 2.6987030485250557e-02 0.0000000000000000e+00  -1.9321575976314272e-06 1.4723927612846367e-07 0.0000000000000000e+00  -1.2053650930124798e-06 1.0400645514350401e-09 0.0000000000000000e+00  1.7705506113266356e-01 1.4162952931188976e-05 0.0000000000000000e+00  1.9510613707656493e-01 2.8598314433472555e-06 0.0000000000000000e+00  -1.2585980149261612e-06 1.4316859453419168e-09 0.0000000000000000e+00  -1.5661478582481068e-06 8.5748465155755354e-10 0.0000000000000000e+00  -1.3951806079037196e-06 -2.6538790023744389e-09 0.0000000000000000e+00  -4.9140321217642412e-07 1.3148137168227730e-09 0.0000000000000000e+00  -4.8791361681505223e-07 -1.4200530892601808e-09 0.0000000000000000e+00  2.1952472643841558e-06 3.2034562504785524e-07 0.0000000000000000e+00  -2.9187885290538612e-06 -4.4721948957281503e-07 0.0000000000000000e+00  -9.5018692617600575e-07 1.5253216793804560e-08 0.0000000000000000e+00  -1.2925073536077519e-06 -7.0488754823549724e-08 0.0000000000000000e+00  -3.0277457126849638e-07 8.9147967334525893e-08 0.0000000000000000e+00  -1.9404788728539563e-07 -3.6523860946367577e-10 0.0000000000000000e+00  -1.5897102978954462e-06 3.4241315589468818e-09 0.0000000000000000e+00  -7.2172340478446643e-07 -1.9482086282675150e-09 0.0000000000000000e+00  1.3751984922982777e-01 -1.2753273898319626e-02 0.0000000000000000e+00  1.6590001119477127e-01 -5.0224455788060057e-05 0.0000000000000000e+00  1.6889348359151682e-01 -7.3473517319340507e-04 0.0000000000000000e+00  1.7154399322098141e-01 5.9474130424339499e-06 0.0000000000000000e+00  2.9933728172265006e-01 1.0769958001542508e-01 0.0000000000000000e+00  2.9639340715589896e-01 5.3644677975686908e-02 0.0000000000000000e+00  3.1522522144684628e-01 2.8217677296290711e-02 0.0000000000000000e+00  1.7660271864524693e-01 1.1398379255864936e-06 0.0000000000000000e+00  1.9531964690564313e-01 -2.8160464972522246e-06 0.0000000000000000e+00  1.9575160927203181e-01 -1.0611295187103623e-03 0.0000000000000000e+00  1.6156198464637447e-01 -5.6451013412157131e-06 0.0000000000000000e+00  1.9533330164167653e-01 -1.0942924550310098e-05 0.0000000000000000e+00  1.9532400611328057e-01 -1.2241931740731431e-05 0.0000000000000000e+00  1.9517827006246052e-01 -7.6816050760917511e-06 0.0000000000000000e+00  1.9530570880685894e-01 7.3523241576368133e-07 0.0000000000000000e+00  1.6527553073094148e-01 -5.1798707352311091e-06 0.0000000000000000e+00  1.7141691911749354e-01 -9.8110322738290049e-06 0.0000000000000000e+00  2.1879310072126645e-01 1.6705333960712782e-01 0.0000000000000000e+00  1.2159581048164485e-02 2.3608467211340682e-02 0.0000000000000000e+00  1.6207383248912755e-01 -9.4448902368346211e-05 0.0000000000000000e+00  2.3330725693879556e-01 -1.1587003340088159e-02 0.0000000000000000e+00  1.8985243797639301e-01 1.6147441212015431e-06 0.0000000000000000e+00  1.9530506972447423e-01 2.4979129794323731e-06 0.0000000000000000e+00  1.9538514932667853e-01 -5.7269572290989494e-04 0.0000000000000000e+00  1.9513650042586345e-01 -2.0355021137315495e-06 0.0000000000000000e+00  1.7277646293019081e-01 1.6351068900134214e-05 0.0000000000000000e+00  1.9526970303263741e-01 -3.7242397151892767e-05 0.0000000000000000e+00  1.9704612766520010e-01 -2.8312362320673848e-03 0.0000000000000000e+00  1.6818018381309482e-01 -7.2290223580464307e-06 0.0000000000000000e+00  1.9520994970261121e-01 2.8677490503025017e-06 0.0000000000000000e+00  1.6617824592160091e-01 5.0540476094964236e-06 0.0000000000000000e+00  1.4912244885820516e-01 6.1983246015862088e-02 0.0000000000000000e+00  1.8476914786382284e-01 1.0351304317473675e-01 0.0000000000000000e+00  1.8989774344846522e-01 1.8329614705575287e-02 0.0000000000000000e+00  1.5664313349729997e-01 -2.5866627920644123e-04 0.0000000000000000e+00  1.9810282724382092e-01 -8.7879749905755093e-03 0.0000000000000000e+00  1.9481810082441839e-01 -7.0947082789135293e-04 0.0000000000000000e+00  3.8404438247302541e-01 2.4830700985186135e-02 0.0000000000000000e+00  1.9534169032158152e-01 -1.0666276275208560e-04 0.0000000000000000e+00  1.9485891609358905e-01 -1.8770205700656349e-04 0.0000000000000000e+00  3.4583654394537067e-01 1.4942591294853413e-01 0.0000000000000000e+00  3.0777565063620305e-01 3.4944951692660667e-02 0.0000000000000000e+00  2.3338622368879852e-01 8.7987743182293701e-02 0.0000000000000000e+00  1.9531744479472807e-01 8.4089070957421932e-06 0.0000000000000000e+00  1.9412791055088252e-01 -1.7910037297037891e-05 0.0000000000000000e+00  1.9525840890041321e-01 -1.1131649681437152e-05 0.0000000000000000e+00  2.6250120841324598e-01 -8.2114749625578132e-02 0.0000000000000000e+00  1.4107844440738404e-01 3.7010331667791850e-02 0.0000000000000000e+00  1.5858888788211395e-01 1.0570803013629480e-05 0.0000000000000000e+00  2.3407494874973400e-01 2.5569607052184831e-02 0.0000000000000000e+00  2.1335297841039846e-01 7.5315396145637328e-02 0.0000000000000000e+00  1.9502187182452854e-01 -5.4330233738744265e-05 0.0000000000000000e+00  1.6606286964191933e-01 -6.5380988993252315e-06 0.0000000000000000e+00  1.8255833561289772e-01 -9.0135140141194329e-04 0.0000000000000000e+00  4.6445084445333118e-01 1.7866674219264418e-02 0.0000000000000000e+00  1.9105208230672885e-01 -4.1588614395921871e-03 0.0000000000000000e+00  2.0948659029034702e-01 -7.4129712948313321e-03 0.0000000000000000e+00  1.9457403858119482e-01 9.5454550528290681e-07 0.0000000000000000e+00  1.5598230824376375e-01 -1.7326542566579979e-03 0.0000000000000000e+00  1.9454540945476756e-01 -1.1374418868500233e-05 0.0000000000000000e+00  1.9530025369163398e-01 -4.2878202020252603e-05 0.0000000000000000e+00  1.9363724826855883e-01 -5.2329889675066196e-04 0.0000000000000000e+00  1.2630227605874986e-01 -5.0494147951069199e-03 0.0000000000000000e+00  1.4055371140777562e-01 -4.2857826917265032e-06 0.0000000000000000e+00  1.4011715365624311e-01 -1.1762664704615597e-04 0.0000000000000000e+00  1.7809288646069901e-01 -3.0856816265157717e-02 0.0000000000000000e+00  5.8994734906013237e-02 2.2394774590890981e-02 0.0000000000000000e+00  1.9393428068049476e-01 -2.4112211695248512e-06 0.0000000000000000e+00  1.4834425202664672e-01 3.8982877833981087e-06 0.0000000000000000e+00  4.1942491071115595e-01 -8.9752896255467091e-02 0.0000000000000000e+00  1.9520664746425487e-01 1.1739123144384531e-06 0.0000000000000000e+00  1.9468977186167172e-01 -7.8098516069872241e-06 0.0000000000000000e+00  3.5785360520652412e-02 1.3143619435735099e-06 0.0000000000000000e+00  1.8354636184055231e-01 -1.1785593298748140e-02 0.0000000000000000e+00  1.6021752347992144e-01 4.3375622181205463e-02 0.0000000000000000e+00  1.9530403015176154e-01 3.9448622441246044e-06 0.0000000000000000e+00  1.9441040794529621e-01 -9.2315047497822186e-06 0.0000000000000000e+00  1.3428197140261372e-01 -3.0921536285880539e-04 0.0000000000000000e+00  1.9760577570076857e-01 -3.5251817078369233e-03 0.0000000000000000e+00  3.7851491935046649e-01 3.8018132544572251e-02 0.0000000000000000e+00  1.5663734872613821e-01 3.4396220665825809e-05 0.0000000000000000e+00  1.3914166566853292e-01 1.6439085995972733e-05 0.0000000000000000e+00  1.5098553523507266e-01 -2.0742042822459255e-06 0.0000000000000000e+00  4.5392050729305879e-03 9.6651706963986894e-03 0.0000000000000000e+00  3.3356401580448908e-01 -6.4333924497011393e-07 0.0000000000000000e+00  1.4684518717421188e-01 3.7974523822895127e-05 0.0000000000000000e+00  4.0177217926429748e-01 -1.1451594110824906e-02 0.0000000000000000e+00  1.5485546691334226e-01 1.6041902258683688e-05 0.0000000000000000e+00  1.9663262479473256e-01 -2.0941706097660244e-03 0.0000000000000000e+00  1.1852625752837254e-01 2.0937191858944001e-07 0.0000000000000000e+00  1.9523532786510711e-01 -9.7644664746610766e-06 0.0000000000000000e+00  1.5104803477451434e-01 -1.2344093490935106e-05 0.0000000000000000e+00  2.1733327550106252e-01 -8.6319905616718315e-07 0.0000000000000000e+00  1.5104140795035992e-01 -1.6343482163036174e-05 0.0000000000000000e+00  1.9436100219567673e-01 -2.2817411743009227e-05 0.0000000000000000e+00  1.9529954054232748e-01 -8.3028661470393649e-06 0.0000000000000000e+00  1.4680707249844294e-01 -4.2527293859130966e-05 0.0000000000000000e+00  1.2197285093267037e-01 1.2068394364227196e-05 0.0000000000000000e+00  1.9268135140060666e-01 -1.6427874372976789e-04 0.0000000000000000e+00  1.1965973187943053e-01 -5.7869003635872612e-04 0.0000000000000000e+00  2.7117029592651376e-01 -2.7448455799712751e-02 0.0000000000000000e+00  2.0638595596694914e-01 -2.2458493308688463e-02 0.0000000000000000e+00  3.7090524264790575e-01 -1.0180228876293682e-01 0.0000000000000000e+00  1.4046071384313322e-01 -1.5405206834144049e-05 0.0000000000000000e+00  2.2706766247343854e-01 -4.9914041517665667e-02 0.0000000000000000e+00  1.8013507554167615e-01 -8.6155889594900191e-03 0.0000000000000000e+00  1.9320798406091300e-01 -6.1427537394226566e-06 0.0000000000000000e+00  1.9441529864960491e-01 -1.6283771726497158e-03 0.0000000000000000e+00  1.2178725248980146e-01 7.1587331211572287e-06 0.0000000000000000e+00  1.3688480313600065e-01 -3.5640621112636544e-04 0.00000