<?xml version="1.0"?>
<VTKFile type="UnstructuredGrid"  version="0.1"  >
<UnstructuredGrid>
<Piece  NumberOfPoints="1404" NumberOfCells="2604">
<Points>
<DataArray  type="Float64"  NumberOfComponents="3"  format="ascii">0 0.41 0  0 0 0  2.2 0 0  2.2 0.41 0  0.2353553390593274 0.2353553390593274 0  0.25 0.2 0  0.2353553390593274 0.1646446609406726 0  0.2 0.15 0  0.1646446609406726 0.1646446609406726 0  0.15 0.2 0  0.1646446609406726 0.2353553390593274 0  0.2 0.25 0  0.6923879532511287 0.188268343236509 0  0.7 0.15 0  0.6923879532511287 0.1117316567634909 0  0.6707106781186547 0.07928932188134523 0  0.6382683432365089 0.05761204674887133 0  0.6 0.04999999999999999 0  0.5617316567634909 0.05761204674887134 0  0.5292893218813453 0.07928932188134524 0  0.5076120467488713 0.111731656763491 0  0.5 0.15 0  0.5076120467488713 0.188268343236509 0  0.5292893218813453 0.2207106781186547 0  0.561731656763491 0.2423879532511287 0  0.6 0.25 0  0.6382683432365089 0.2423879532511287 0  0.6707106781186547 0.2207106781186547 0  1.1 0 0  0 0.205 0  1.1 0.41 0  0.55 0 0  0.55 0.41 0  0.275 0 0  0.8250000000000001 0 0  0.275 0.41 0  0.8250000000000001 0.41 0  0.6875 0 0  0.61875 0 0  1.65 0.41 0  1.65 0 0  1.375 0 0  1.375 0.41 0  1.925 0 0  1.925 0.41 0  1.5125 0.205 0  1.7875 0.205 0  0.9625000000000001 0.205 0  1.2375 0.205 0  2.2 0.205 0  1.99375 0.2152743902439024 0  0.4125 0.41 0  2.0625 0 0  2.0625 0.41 0  2.2 0.3075 0  1.7875 0.41 0  1.375 0.1486128048780488 0  1.5125 0 0  1.7875 0 0  1.5125 0.41 0  0.9625000000000001 0.41 0  0.4125 0 0  0.1375 0 0  0.1375 0.41 0  0.6875 0.41 0  0.9625000000000001 0 0  1.2375 0 0  1.1 0.1486128048780488 0  1.2375 0.41 0  1.65 0.1486128048780487 0  0.823495464168302 0.2603780552348366 0  0.3738707794507017 0.2720196349488618 0  0.3662291281331582 0.1311456406657909 0  1.676715909090909 0.2793064024390244 0  1.126715909090909 0.2793064024390244 0  1.348284090909091 0.2793064024390244 0  0.8287581077665108 0.1302150898054257 0  1.894702181800738 0.1282910975492754 0  2.092797818199262 0.1282910975492754 0  1.85625 0.3075 0  0 0.3075 0  0 0.1025 0  2.099172119769978 0.25625 0  0.4752414543992246 0.3180372603390748 0  1.99375 0.08395950269330846 0  1.459960956013612 0.3075 0  1.569025960719943 0.2986889805672169 0  1.03125 0.3278689922742084 0  1.959375 0.3126371951219512 0  1.749222215368287 0.1025 0  1.275777784631713 0.1025 0  0.9228016959331474 0.3075 0  1.000777784631713 0.1025 0  2.2 0.1025 0  1.225938124459196 0.3075 0  1.550777784631713 0.1025 0  1.44375 0.07430640243902442 0  1.16875 0.07430640243902439 0  0.7562500000000001 0.3358727844323386 0  0.89375 0 0  1.899250267340833 0.2229966846119207 0  0.61875 0.41 0  1.766482954545455 0.2934032012195123 0  1.046078563095834 0.2389031808701145 0  1.421109702350723 0.2261157654379721 0  0.07567171807980319 0.25625 0  0.2511897295290552 0.3235829392832554 0  0.07655002503762308 0.1488653460959645 0  0.1377245246847496 0.3206030474919778 0  0.6694099692696568 0.3242771941727899 0  0.9168971191497528 0.1295727156104653 0  0.7562500000000001 0 0  2.118919042110979 0.3422084711244843 0  2.13125 0 0  0.06875000000000001 0 0  1.30625 0.41 0  1.597888256393107 0.2173787389261347 0  0.34375 0.41 0  0.2493272016354703 0.08091360081773515 0  0.5588896233436766 0.3264056208677571 0  1.829299675393195 0.07400700849299596 0  0.1334079128307869 0.08523463035786674 0  1.71875 0.41 0  0.06875000000000001 0.41 0  1.16875 0.41 0  2.038220665644273 0.332420740103091 0  0.8810647413215221 0.2027360103977071 0  0.34375 0 0  0.7453891198966415 0.2471459041008237 0  0.42112093004955 0.1988123139090554 0  0.8314023090855964 0.3351170841770613 0  0.89375 0.41 0  0.7906250000000001 0.06615386481594063 0  1.452769549894695 0.1548122580621249 0  1.369219062229598 0.07430640243902442 0  1.30625 0 0  1.07420695807087 0.07430640243902439 0  1.720943423819132 0.1714577452753128 0  1.157188124459196 0.205 0  1.304056576180868 0.1714577452753128 0  1.67579304192913 0.07430640243902437 0  1.209670467133757 0.136210026696477 0  0.4312800784902823 0.08036147352247747 0  0.8723959680194693 0.07066860609690805 0  1.025335513626278 0.1700681449722324 0  0.7945632284247136 0.1940204203251442 0  0.378125 0.3452261501101892 0  0.3307109909790086 0.2037165635083759 0  0.3009701032039409 0.2702970083403109 0  0.20625 0.41 0  1.58125 0 0  0.4812500000000001 0 0  0.9838963872396855 0.2722244191167347 0  0.06772484939107212 0.3260067317374387 0  0.20625 0 0  1.58125 0.41 0  1.631724228912893 0.3381867502687533 0  1.825608881788174 0.14499488549201 0  1.85625 0 0  1.44375 0 0  1.44375 0.41 0  1.85625 0.41 0  2.13125 0.41 0  0.7562500000000001 0.41 0  0.4812500000000001 0.41 0  1.16875 0 0  1.03125 0.41 0  1.03125 0 0  1.71875 0 0  1.99375 0 0  1.99375 0.41 0  0.9408708167433545 0.0651989315768642 0  1.340625 0.3489494290853124 0  1.134375 0.3489494290853123 0  1.700180620188976 0.3438659752031281 0  0.29668452290037 0.1318471691375986 0  0.3175441051360096 0.06496934809856265 0  0.06509151636162461 0.08140814015999148 0  2.135782184673599 0.07126652247502523 0  1.668441847249787 0.2129203728327609 0  1.295782514339747 0.2378437748815763 0  1.409375 0.3520314716057996 0  2.129248544730567 0.1906135162504124 0  2.060771381434487 0.1989445750470348 0  2.013252586573865 0.1496169464686054 0  1.942766402200229 0.1734448904596831 0  1.895522487186454 0.06076163953489683 0  2.069553871656643 0.06605731020975725 0  0.4670911801404742 0.2498408582391372 0  0.7622743084658112 0.1264100838268133 0  1.274680914880868 0.3520219391081363 0  0.3148669572599245 0.3331753056385887 0  1.614713220494657 0.09473434380863296 0  1.72990325744076 0.2380068107952482 0  1.356580098625191 0.2120393231351682 0  2.034370752044885 0.2668681600792073 0  1.51768709249349 0.3426260931494756 0  1.561883724969884 0.1650446847858835 0  1.197344062229598 0.2523725417393646 0  1.804085235518364 0.3468178408964637 0  1.817887819205233 0.2589243285818559 0  1.905897727272727 0.3485060975609756 0  0.7296439733931823 0.06337466644369745 0  0.4250935971865949 0.1394919578475796 0  0.3773030136511669 0.05130372097998036 0  1.192836486056382 0.3562350748565544 0  1.1029124365364 0.226143510831178 0  1.28257088594801 0.2944411014911587 0  0.1905185804731426 0.06029880676029167 0  1.474860187679412 0.2504218616229368 0  1.406767003493824 0.2829282258560709 0  0.5209826960981064 0.2830664557824064 0  0.5131119502780163 0.3617405848213254 0  0.1948220106098172 0.3081993407644811 0  1.845656689180403 0.1998310418452388 0  2.144958525570388 0.2909790873294231 0  2.2 0.15375 0  0.8833025251326762 0.2625402923007629 0  0.171875 0.3653875762360952 0  1.57794966442982 0.3540357145964566 0  0.446875 0.366068291212731 0  0.4272051715206439 0.2891929346190664 0  1.508991196088596 0.1421783375065625 0  1.50436820029908 0.06143401634903343 0  1.223857000523521 0.08235548624535324 0  0.6137904613287555 0.3066826366281556 0  1.153316824384777 0.1289850171317838 0  0.9751573703656133 0.327632618473408 0  2.148922302309752 0.1258841779285271 0  0.9281250000000001 0.3643758685795699 0  1.621993280276081 0.2841214267927899 0  1.550118654119087 0.2461998729100966 0  1.327182649291491 0.1216967252533594 0  0.9939955742738924 0.04663549843168518 0  1.753125 0.04556020050186112 0  1.271875 0.04556020050186116 0  0.9734326767716519 0.1506854560854393 0  0.103125 0.3675775577080512 0  1.94956388244759 0.1180512551534177 0  1.949997712993411 0.04965831614304109 0  0.717433898748555 0.295596016333797 0  1.771961817615021 0.1530278789497521 0  1.909246823951428 0.2812757146784527 0  0 0.35875 0  1.050632804931928 0.1226269704412814 0  0.05695108326502596 0.2024009637347154 0  1.948575539857022 0.2445328248721197 0  1.697271520964565 0.1233917627620729 0  1.065625 0.3689344961371042 0  1.085849084308977 0.3170853572226867 0  0.1015495998772944 0.04226029099983852 0  1.577403511714593 0.05463601888079143 0  1.751571320346033 0.3651102912045228 0  2.2 0.35875 0  0.7441773632462837 0.1786786606458751 0  0 0.05125 0  1.466879772203159 0.3611261772912453 0  0.6282230348858767 0.3577675483994025 0  1.990280163552011 0.3564754268533217 0  1.17471064520912 0.2990917256188288 0  0 0.25625 0  2.2 0.25625 0  2.2 0.05125 0  0 0.15375 0  1.853978576207987 0.35875 0  1.515638456102889 0.2882700110184686 0  2.150453692751374 0.2387066338105111 0  1.323782677156475 0.04897634338873398 0  1.409375 0.03715320121951221 0  1.406484531114799 0.1087852750766809 0  1.134375 0.03715320121951219 0  0.721875 0.3729363922161693 0  0.7941695928236929 0.3696489254637395 0  0.7934827162619036 0.3013409431456604 0  1.627401732573545 0.04552157221025036 0  0.9352049974617431 0.2507047965699472 0  0.8763260682738339 0.3611103317460093 0  2.045405893604797 0.1105340662939892 0  1.255408269734577 0.1577307500159216 0  2.028125 0.03707597992059326 0  1.003030137506755 0.3689344961371042 0  1.248258025468107 0.2565907092181813 0  1.203125 0.03661323374043041 0  0.4800125512335631 0.0549472816999725 0  2.072662025974815 0.2975086504196739 0  0.240625 0.3729825336867542 0  1.113252391110535 0.10238286244357 0  1.071052763974265 0.1885202618768825 0  0.8738809401657862 0.3106483608284829 0  0.6786819423003397 0.2677558482644021 0  1.887722846421017 0.1760882698830035 0  1.472640588990488 0.1118278026240017 0  0.5843750000000001 0.41 0  1.865937103925594 0.2604137786483804 0  1.463913572748262 0.2030442564990043 0  1.376426316059077 0.3186741374914345 0  0.1038643885363755 0.2162701735320032 0  0.1769473813227781 0.1070849728467114 0  0.458787839809176 0.171541653775316 0  0.240625 0 0  0.04179569703428024 0.2877217852556549 0  0.1258346557601885 0.2699740073054968 0  1.722140693354707 0.282908100935778 0  0.41206179117512 0.2448172567039922 0  0.3702471778075604 0.2265217604228704 0  0.3714881805374215 0.1786967818665642 0  1.77397096061971 0.2481483237422926 0  2.105123889160691 0.03743885948498647 0  1.001138337938679 0.229719337663998 0  1.051242910646791 0.2854826559431138 0  1.395420985247586 0.18
[...]
<PointData  Vectors="f_37"> 
<DataArray  type="Float64"  Name="f_37"  NumberOfComponents="3" format="ascii">2.2817665622245403e-07 1.8313926410074121e-08 0.0000000000000000e+00  -4.4812321805325269e-06 -3.2395857644439665e-07 0.0000000000000000e+00  -7.6036402872311416e-07 9.2397792082512299e-10 0.0000000000000000e+00  -9.8686644594541833e-07 -3.5621082140867833e-10 0.0000000000000000e+00  -5.7280904278186554e-07 9.9125532134328569e-07 0.0000000000000000e+00  -1.9539854882227512e-07 8.9315127609560360e-07 0.0000000000000000e+00  2.7558808113458297e-07 3.9946554749102797e-07 0.0000000000000000e+00  -1.2756591143765725e-06 -5.2082294855564035e-07 0.0000000000000000e+00  -1.5667996585698122e-06 1.9739792668604589e-07 0.0000000000000000e+00  2.2496930592930775e-07 8.1359191261232715e-08 0.0000000000000000e+00  -6.9927913090102983e-07 -4.6501598306421738e-07 0.0000000000000000e+00  -1.0521422066733830e-06 -3.2690049914466842e-07 0.0000000000000000e+00  1.0793131223065687e-06 -8.1035508221732728e-07 0.0000000000000000e+00  -6.6585805718469146e-07 -2.4784985988825099e-06 0.0000000000000000e+00  -8.6433280402414914e-07 -1.3520179405254618e-06 0.0000000000000000e+00  -2.3849861661002917e-06 8.4365638118563860e-08 0.0000000000000000e+00  1.6011080106473581e-06 1.4023470407365579e-06 0.0000000000000000e+00  3.2191385385329019e-01 9.0206484680539614e-02 0.0000000000000000e+00  5.9664939868744264e-06 3.7930867846752514e-06 0.0000000000000000e+00  6.4418489372727165e-06 -4.1580305139464657e-08 0.0000000000000000e+00  -2.3390478870120475e-06 -1.7923244277817756e-06 0.0000000000000000e+00  -1.2371394963780887e-07 2.4257788416152233e-06 0.0000000000000000e+00  3.2607440613323686e-06 2.2616657170470695e-06 0.0000000000000000e+00  2.6399248688582446e-06 -3.8154757441770522e-06 0.0000000000000000e+00  -3.2605703069711557e-06 -4.3639276247098459e-06 0.0000000000000000e+00  -6.1244080838061602e-06 -1.4791697963523330e-06 0.0000000000000000e+00  -4.9483819078166825e-06 -1.3114508525839303e-07 0.0000000000000000e+00  7.8823814332714616e-07 -1.3783468544892289e-07 0.0000000000000000e+00  -2.9598056141029211e-06 4.2958389994711875e-07 0.0000000000000000e+00  1.6583339763565944e-01 -2.8714006441945245e-07 0.0000000000000000e+00  -1.4588633550544700e-06 -2.2309537527813230e-07 0.0000000000000000e+00  5.5806977124772141e-06 3.5973899887111017e-06 0.0000000000000000e+00  -1.4466284362950879e-06 5.8130057074422049e-08 0.0000000000000000e+00  3.9482882829305014e-07 1.1664178145174912e-07 0.0000000000000000e+00  1.9285889644483721e-06 -4.2918466820198737e-07 0.0000000000000000e+00  -9.0176000321452259e-07 2.0712413259355810e-07 0.0000000000000000e+00  -9.1239815336781264e-07 2.2156901998844898e-08 0.0000000000000000e+00  -2.4062883785135765e-06 -5.1147413565280044e-07 0.0000000000000000e+00  -8.6917970658694651e-06 -1.5047028385261099e-07 0.0000000000000000e+00  -1.1184409880181337e-06 -1.4795923840427982e-09 0.0000000000000000e+00  -1.4476373953023608e-06 -2.5066053215691154e-09 0.0000000000000000e+00  -6.9086940284751215e-07 -1.1561165384354540e-08 0.0000000000000000e+00  -5.2902927440634789e-07 -1.2815630943614809e-08 0.0000000000000000e+00  -6.0167205272621444e-07 -1.7974056345200753e-10 0.0000000000000000e+00  -1.1341307573936064e-07 -6.3028436662542999e-10 0.0000000000000000e+00  2.0940083256169992e-01 4.3930150722633587e-04 0.0000000000000000e+00  2.0939705847374240e-01 6.8789280026792602e-05 0.0000000000000000e+00  2.5110744753793068e-01 -1.1608100802742537e-01 0.0000000000000000e+00  2.1246243253836516e-01 -4.7437664010171621e-03 0.0000000000000000e+00  2.0941647788223416e-01 -6.7042986366699133e-06 0.0000000000000000e+00  2.0935012417412319e-01 1.1430651689006645e-05 0.0000000000000000e+00  5.5367747371285161e-07 5.6548844594027365e-08 0.0000000000000000e+00  1.0034902946627885e-07 9.0654704260340155e-10 0.0000000000000000e+00  -6.7399067874554314e-07 1.4411218772957367e-09 0.0000000000000000e+00  1.9227692815444239e-01 -1.9220582469182351e-06 0.0000000000000000e+00  -9.6873269902841760e-07 -8.2232156056242815e-10 0.0000000000000000e+00  2.0694692880470084e-01 3.3196025047345997e-04 0.0000000000000000e+00  -1.4274525302803423e-06 -5.4702439352633633e-09 0.0000000000000000e+00  -1.1732458978502841e-06 -1.1065614684080732e-09 0.0000000000000000e+00  -7.5006294981259818e-07 -5.5112986471429055e-09 0.0000000000000000e+00  1.8622529034061556e-06 4.7514718358352673e-07 0.0000000000000000e+00  -3.2145177744357591e-07 -2.5463656604211474e-07 0.0000000000000000e+00  -9.6307133738328414e-07 -8.1775636613988356e-08 0.0000000000000000e+00  -1.2234891265508875e-07 -8.6399748505684167e-08 0.0000000000000000e+00  -1.8925036490545232e-06 -2.2145111464492160e-07 0.0000000000000000e+00  -1.1921223357844887e-06 3.2683323429688415e-07 0.0000000000000000e+00  7.0108578783047414e-07 4.2947098119226834e-08 0.0000000000000000e+00  1.9200491700336114e-01 -4.9068989385207880e-02 0.0000000000000000e+00  -1.0545551331552741e-06 -5.6879680232372386e-08 0.0000000000000000e+00  2.0704546390588180e-01 1.7780944467424148e-04 0.0000000000000000e+00  3.2701686963756577e-01 -6.7234969649914267e-02 0.0000000000000000e+00  9.2717539809503161e-02 2.5322558324380072e-03 0.0000000000000000e+00  3.1320818073790874e-01 1.1919389952532346e-01 0.0000000000000000e+00  2.0364145322510524e-01 1.3930404704837123e-04 0.0000000000000000e+00  2.2605872690484374e-01 -3.9223569111343061e-03 0.0000000000000000e+00  2.0380517999732412e-01 8.7271527688732105e-04 0.0000000000000000e+00  3.6509049033332734e-02 5.3058830650886991e-02 0.0000000000000000e+00  2.0311711038602878e-01 2.9822685172686295e-05 0.0000000000000000e+00  2.0307152366420070e-01 9.4382553428985570e-06 0.0000000000000000e+00  1.9225473734159695e-01 2.2726581100040664e-05 0.0000000000000000e+00  7.5234888540429035e-02 -1.0592575979114814e-08 0.0000000000000000e+00  2.7319257054347035e-01 1.4248950606328001e-07 0.0000000000000000e+00  2.0753971163572191e-01 2.5658392991550337e-06 0.0000000000000000e+00  2.4123559054048743e-01 8.0175669271165872e-02 0.0000000000000000e+00  1.7769368553917506e-01 5.8793155765560817e-06 0.0000000000000000e+00  1.9171942377015261e-01 5.4517062845241466e-04 0.0000000000000000e+00  1.9672180302810111e-01 2.8377121595350751e-04 0.0000000000000000e+00  1.9606456284710097e-01 -1.4536566163204789e-02 0.0000000000000000e+00  1.8893582653190047e-01 1.9648093969043313e-06 0.0000000000000000e+00  1.9235270661658169e-01 5.4183959881736730e-05 0.0000000000000000e+00  1.9152388941357404e-01 -1.1264990055341805e-03 0.0000000000000000e+00  3.5008034339519406e-01 -8.2389412331653353e-02 0.0000000000000000e+00  9.6930846754639324e-02 -5.3487986788143295e-02 0.0000000000000000e+00  1.9226115321780099e-01 -3.5499484104137944e-06 0.0000000000000000e+00  1.9300415148542824e-01 2.5652433284315420e-03 0.0000000000000000e+00  1.9254137579180361e-01 2.9486936372436374e-04 0.0000000000000000e+00  1.6789860666345849e-01 4.3977321667800200e-04 0.0000000000000000e+00  1.5932856119445507e-01 -7.5902243673639140e-03 0.0000000000000000e+00  4.3115381389245344e-01 -5.3785134007087190e-02 0.0000000000000000e+00  1.5797682664922311e-06 -3.1315566750854046e-07 0.0000000000000000e+00  2.0924735693439178e-01 2.7533779876709166e-05 0.0000000000000000e+00  -1.1179674514050193e-06 -6.5670453327359037e-08 0.0000000000000000e+00  1.9916757462209200e-01 7.1116379844881990e-05 0.0000000000000000e+00  2.8412459786004812e-01 -7.0728877739446319e-02 0.0000000000000000e+00  2.0921796027874964e-01 5.5550619179572892e-04 0.0000000000000000e+00  1.2547900150275845e-01 7.0377009568769647e-02 0.0000000000000000e+00  2.3076524453554159e-01 1.7762007862723726e-02 0.0000000000000000e+00  2.0898282104657445e-01 2.3822126234319417e-02 0.0000000000000000e+00  1.4761670685344813e-01 7.2051828886514818e-02 0.0000000000000000e+00  4.6700488798894990e-01 -2.0953411394186692e-02 0.0000000000000000e+00  5.7514157253143336e-02 -2.8264707879322216e-02 0.0000000000000000e+00  5.2233385759714696e-07 -3.4123926913392422e-07 0.0000000000000000e+00  1.5848699680029832e-01 3.5636733453455196e-06 0.0000000000000000e+00  -1.8548332159517467e-06 -3.8531813494268893e-09 0.0000000000000000e+00  -1.3848912078379750e-06 1.4923440178224019e-08 0.0000000000000000e+00  -5.5007166323392673e-07 -7.7224492381074387e-09 0.0000000000000000e+00  2.0929390226962410e-01 2.8627067870602019e-04 0.0000000000000000e+00  -2.0790143579464236e-06 -1.5740328486961243e-07 0.0000000000000000e+00  4.0452623317805503e-01 4.5583974640148614e-02 0.0000000000000000e+00  3.8766026864129433e-01 8.4510789992889676e-02 0.0000000000000000e+00  1.6674188505723442e-01 3.2811813800044518e-06 0.0000000000000000e+00  3.4411669646279308e-01 1.3042438707728926e-02 0.0000000000000000e+00  -1.1776710952287428e-06 -1.3785229491222417e-09 0.0000000000000000e+00  -1.6249294510354500e-07 -1.1590005547963700e-07 0.0000000000000000e+00  -1.9930207426151131e-06 -1.6011880150510295e-07 0.0000000000000000e+00  1.7091503030523802e-01 -3.9408390659427792e-06 0.0000000000000000e+00  1.7937790398489944e-01 -5.0504836082764452e-02 0.0000000000000000e+00  -4.3347826192415538e-07 -7.4226296557630556e-08 0.0000000000000000e+00  1.6731869856787465e-01 -2.4273914662064296e-02 0.0000000000000000e+00  1.7664832876413172e-01 1.7071266651227823e-01 0.0000000000000000e+00  3.7574027507144281e-01 -6.0994597449433460e-02 0.0000000000000000e+00  2.0428220100940390e-06 -1.4206803904237097e-08 0.0000000000000000e+00  8.4819113298102183e-02 4.8826769241418121e-02 0.0000000000000000e+00  2.0778353969655372e-01 5.3645898103191756e-04 0.0000000000000000e+00  1.6826832691818683e-01 5.1304668744456836e-04 0.0000000000000000e+00  2.6516401000636748e-07 -2.1636751682688263e-09 0.0000000000000000e+00  1.2766802072516298e-01 -2.5261641853344338e-02 0.0000000000000000e+00  2.0877008799673860e-01 1.0921541874864858e-04 0.0000000000000000e+00  2.2176034276265905e-01 -2.0006845215444446e-02 0.0000000000000000e+00  2.0867207527970602e-01 -1.2214483242114413e-03 0.0000000000000000e+00  1.6716590371241061e-01 8.1776340718242436e-05 0.0000000000000000e+00  2.0104498448578617e-01 -8.9338274025570451e-03 0.0000000000000000e+00  2.2103714389362325e-01 2.6691161872855220e-02 0.0000000000000000e+00  3.7352007243966194e-02 1.1046852716895745e-02 0.0000000000000000e+00  1.9549899918695532e-01 -9.6508261576068594e-02 0.0000000000000000e+00  5.2058423274482929e-02 3.4939465815774479e-02 0.0000000000000000e+00  2.1198894290352568e-01 6.0746463704179606e-03 0.0000000000000000e+00  4.5528066763451225e-02 1.3504659636393846e-02 0.0000000000000000e+00  9.3573935818570902e-02 -2.3699982694547123e-02 0.0000000000000000e+00  -3.7824037011301510e-07 1.6085303362111235e-07 0.0000000000000000e+00  -6.3127048553854384e-07 -4.2898149518570573e-09 0.0000000000000000e+00  2.4142282480968745e-07 1.5692362263339455e-07 0.0000000000000000e+00  3.3258713837616927e-01 -9.1449822237743519e-02 0.0000000000000000e+00  7.8025315854055449e-02 3.0670323545466505e-02 0.0000000000000000e+00  -2.2797941347076328e-06 -9.8742661223653346e-08 0.0000000000000000e+00  -8.2351969345961035e-07 -2.2667891948167018e-09 0.0000000000000000e+00  1.6370200062372220e-01 1.1680692837674280e-04 0.0000000000000000e+00  2.0644550146963350e-01 3.8758504223869516e-05 0.0000000000000000e+00  -8.3223149588822019e-07 1.7756418990344345e-10 0.0000000000000000e+00  -9.7933417274202729e-07 -9.4520184946940336e-09 0.0000000000000000e+00  -1.0249268087881485e-06 -1.0595069078687634e-08 0.0000000000000000e+00  -2.0842113444755770e-07 2.0115929148414033e-10 0.0000000000000000e+00  -1.6802202080669770e-07 -4.5078579305613883e-10 0.0000000000000000e+00  1.1231661151759490e-06 -2.0834056894292679e-07 0.0000000000000000e+00  -2.4865622831756837e-06 -3.5082220206107021e-09 0.0000000000000000e+00  -1.1682528736029591e-06 2.5077771239325266e-07 0.0000000000000000e+00  1.6255018572523174e-06 4.0372123656699004e-07 0.0000000000000000e+00  -2.9088378070991406e-06 3.1598864227658321e-07 0.0000000000000000e+00  1.0759692258946194e-07 -1.5172594038226008e-09 0.0000000000000000e+00  -1.0829042406693406e-06 1.2245603339854488e-09 0.0000000000000000e+00  -3.9500477825700144e-07 -3.9700754919305766e-10 0.0000000000000000e+00  4.1835280556715281e-02 -1.5678855431465126e-02 0.0000000000000000e+00  1.4637128304229460e-01 8.2823815055026260e-04 0.0000000000000000e+00  1.3904367098934900e-01 5.1085391259719773e-03 0.0000000000000000e+00  1.5602367797532998e-01 5.1778956924503265e-05 0.0000000000000000e+00  2.9938971014401133e-01 8.1374423462066067e-02 0.0000000000000000e+00  3.3147402893364913e-01 5.7879845053771119e-02 0.0000000000000000e+00  3.1548716274676014e-01 2.6156272148246451e-02 0.0000000000000000e+00  1.6319121609827950e-01 9.7700074316859239e-06 0.0000000000000000e+00  2.0935369020009098e-01 1.7973531835698166e-04 0.0000000000000000e+00  2.1040248221056407e-01 -3.1231896034587483e-04 0.0000000000000000e+00  1.4207083341071966e-01 4.6131097199491943e-04 0.0000000000000000e+00  2.0931662984522972e-01 1.2961674053130028e-07 0.0000000000000000e+00  2.0938657949198469e-01 2.1263510421639879e-06 0.0000000000000000e+00  2.0704749485974622e-01 5.8211406899894325e-06 0.0000000000000000e+00  2.0884554450843426e-01 1.5538427929187178e-05 0.0000000000000000e+00  1.4799819184551830e-01 4.9789404294340331e-06 0.0000000000000000e+00  1.5600211209390516e-01 1.1448695133262563e-05 0.0000000000000000e+00  2.1419718187256007e-01 2.1021497325689134e-01 0.0000000000000000e+00  3.1374877874906025e-02 7.3228049580192564e-02 0.0000000000000000e+00  1.4007306642736453e-01 1.3908968754653014e-03 0.0000000000000000e+00  2.1840033653190863e-01 -2.3999137610158558e-03 0.0000000000000000e+00  1.8725659674503889e-01 1.6706700736303845e-04 0.0000000000000000e+00  2.0875760664272414e-01 1.0435316276909801e-04 0.0000000000000000e+00  2.0970691428467536e-01 1.8633721734177673e-04 0.0000000000000000e+00  2.0622724406120757e-01 7.0709399061724687e-06 0.0000000000000000e+00  1.5733160407986999e-01 2.5560322988528889e-04 0.0000000000000000e+00  2.0852053755986899e-01 3.3712647703522652e-04 0.0000000000000000e+00  2.1742647227375672e-01 -3.0323025870830481e-03 0.0000000000000000e+00  1.5169363919930931e-01 1.4792633736579407e-05 0.0000000000000000e+00  2.0722079152155090e-01 4.9016909734364710e-05 0.0000000000000000e+00  1.4910938976541449e-01 6.2437484921340660e-06 0.0000000000000000e+00  1.4453627768616165e-01 8.1243531867200097e-02 0.0000000000000000e+00  2.4963437035511984e-01 1.3983340301318442e-01 0.0000000000000000e+00  2.0559915035736429e-01 3.2884489342619769e-02 0.0000000000000000e+00  1.2932910608677495e-01 2.9799298844443503e-03 0.0000000000000000e+00  2.4642102991927664e-01 -3.7415653513112865e-02 0.0000000000000000e+00  1.9930023538964661e-01 1.3617537546313405e-03 0.0000000000000000e+00  3.9282225050932129e-01 1.8910693143949362e-02 0.0000000000000000e+00  2.0791198818539036e-01 5.3953397042061130e-04 0.0000000000000000e+00  2.0246307597894753e-01 7.4109888653666009e-04 0.0000000000000000e+00  3.5157024743703602e-01 1.9522451838651753e-01 0.0000000000000000e+00  2.8417849661291655e-01 4.0069189684848461e-02 0.0000000000000000e+00  2.3196200840657544e-01 7.2469501778283679e-02 0.0000000000000000e+00  2.0938322290358394e-01 4.5953452801994791e-05 0.0000000000000000e+00  2.0021522368173514e-01 -1.1587753608424258e-05 0.0000000000000000e+00  2.0753930545600502e-01 -3.2058372143245246e-06 0.0000000000000000e+00  3.6966438581162359e-01 -1.0201632252250172e-01 0.0000000000000000e+00  1.2290197913900973e-01 2.4722922670086977e-02 0.0000000000000000e+00  1.3960201855082116e-01 1.3416916943353077e-04 0.0000000000000000e+00  2.1214637343383611e-01 2.1811961224817662e-02 0.0000000000000000e+00  1.5137628124729716e-01 5.5114703689596152e-02 0.0000000000000000e+00  2.0623092797442172e-01 4.4555874465246006e-04 0.0000000000000000e+00  1.4966847489742552e-01 2.4617221906835033e-04 0.0000000000000000e+00  1.7391879341672423e-01 -3.0063128415629865e-03 0.0000000000000000e+00  4.6920856400419464e-01 4.1854872121895252e-02 0.0000000000000000e+00  1.9224202811757957e-01 -2.1555512146185136e-02 0.0000000000000000e+00  2.3912015320312102e-01 -4.0068033347762683e-02 0.0000000000000000e+00  2.0243003621660330e-01 1.0236469081594848e-05 0.0000000000000000e+00  1.5593869274885427e-01 -1.9077736705576869e-02 0.0000000000000000e+00  2.0223862990293273e-01 2.0396486964066059e-04 0.0000000000000000e+00  2.0823050797933035e-01 3.6517448858442944e-04 0.0000000000000000e+00  2.0093812674565406e-01 -7.8209565240893543e-05 0.0000000000000000e+00  5.2848019447881825e-02 -1.5447439493836319e-02 0.0000000000000000e+00  1.2033522346939025e-01 2.0272318946451479e-05 0.0000000000000000e+00  1.2231588989986743e-01 -4.9668684425697981e-07 0.0000000000000000e+00  1.2803674316422115e-01 -8.5483633534761308e-02 0.0000000000000000e+00  6.1995337469809189e-02 1.6570426851418237e-02 0.0000000000000000e+00  1.9976580777864417e-01 1.2316464580815880e-05 0.0000000000000000e+00  1.2843610458224408e-01 5.0677109655785748e-06 0.0000000000000000e+00  4.1335552600625985e-01 -5.2129958799494037e-02 0.0000000000000000e+00  2.0746619721595452e-01 6.6126904145222609e-05 0.0000000000000000e+00  2.0318799895464490e-01 1.0465895866317291e-05 0.0000000000000000e+00  3.5785381987334559e-02 -1.3875204097596034e-08 0.0000000000000000e+00  1.4872141761567292e-01 -6.1342188715068940e-02 0.0000000000000000e+00  1.5900482387934040e-01 4.1539188700348319e-02 0.0000000000000000e+00  2.0844892452268923e-01 2.1634515351389679e-05 0.0000000000000000e+00  2.0177268338845891e-01 1.1344658925565551e-04 0.0000000000000000e+00  9.1983704050493054e-02 1.6779002779739930e-03 0.0000000000000000e+00  1.9628155971078518e-01 -4.3538452631253216e-04 0.0000000000000000e+00  3.8106912766652434e-01 3.5606838271160172e-02 0.0000000000000000e+00  1.3798497058112613e-01 1.2603288974951814e-04 0.0000000000000000e+00  1.1881944775366270e-01 2.1752402356775550e-05 0.0000000000000000e+00  1.3136423297616842e-01 -1.4312855750927959e-06 0.0000000000000000e+00  -2.8357091897393740e-03 4.6309744603772088e-02 0.0000000000000000e+00  3.3356381633395599e-01 1.0409747760234597e-07 0.0000000000000000e+00  1.2600601388414162e-01 2.5108777927694667e-04 0.0000000000000000e+00  4.0832039317746166e-01 1.9399089688295588e-03 0.0000000000000000e+00  1.3561297439977610e-01 1.3297282956813311e-06 0.0000000000000000e+00  2.0228197076187937e-01 3.2183927737374171e-03 0.0000000000000000e+00  1.1852652658714785e-01 4.3066721699476544e-08 0.0000000000000000e+00  2.0754441403190865e-01 6.0435668763836455e-06 0.0000000000000000e+00  1.3139119355491755e-01 1.1498928808590964e-05 0.0000000000000000e+00  2.1733313579092034e-01 1.2429667534120234e-07 0.0000000000000000e+00  1.3139860346560439e-01 4.0311630391355777e-06 0.0000000000000000e+00  2.0084186792128722e-01 4.2709683705770762e-04 0.0000000000000000e+00  2.0876141641887905e-01 3.4095548403558644e-06 0.0000000000000000e+00  1.2903894983128938e-01 3.2413142811562977e-04 0.0000000000000000e+00  1.0330076171757983e-01 2.3341126044403165e-04 0.0000000000000000e+00  1.9626489964680457e-01 5.6129873526630780e-04 0.0000000000000000e+00  9.4823766439874141e-02 -4.0602986825201588e-03 0.0000000000000000e+00  3.1383187658474798e-01 -2.2535326493146043e-02 0.0000000000000000e+00  2.6373506504988903e-01 -2.5811462827361190e-02 0.0000000000000000e+00  4.2802036815157102e-01 -7.3035422410953010e-02 0.0000000000000000e+00  1.2040550882470584e-01 5.8388525730538195e-05 0.0000000000000000e+00  3.4999150939552676e-01 -1.1804888140677894e-01 0.0000000000000000e+00  2.1966372309428797e-01 -2.8685367250489466e-02 0.0000000000000000e+00  1.9660073131664432e-01 1.3532359349481897e-05 0.0000000000000000e+00  2.0700613547308350e-01 -4.0292790142226198e-03 0.0000000000000000e+00  1.0189448365349846e-01 9.1378459500392541e-06 0.0000000000000000e+00  9.9320208992298945e-02 -5.7352119446922364e-03 0.0000000000000000e+00  2.1132552975125266e-01 -4.4776367597127250