<?xml version="1.0"?>
<VTKFile type="UnstructuredGrid"  version="0.1"  >
<UnstructuredGrid>
<Piece  NumberOfPoints="1404" NumberOfCells="2604">
<Points>
<DataArray  type="Float64"  NumberOfComponents="3"  format="ascii">0 0.41 0  0 0 0  2.2 0 0  2.2 0.41 0  0.2353553390593274 0.2353553390593274 0  0.25 0.2 0  0.2353553390593274 0.1646446609406726 0  0.2 0.15 0  0.1646446609406726 0.1646446609406726 0  0.15 0.2 0  0.1646446609406726 0.2353553390593274 0  0.2 0.25 0  0.6923879532511287 0.188268343236509 0  0.7 0.15 0  0.6923879532511287 0.1117316567634909 0  0.6707106781186547 0.07928932188134523 0  0.6382683432365089 0.05761204674887133 0  0.6 0.04999999999999999 0  0.5617316567634909 0.05761204674887134 0  0.5292893218813453 0.07928932188134524 0  0.5076120467488713 0.111731656763491 0  0.5 0.15 0  0.5076120467488713 0.188268343236509 0  0.5292893218813453 0.2207106781186547 0  0.561731656763491 0.2423879532511287 0  0.6 0.25 0  0.6382683432365089 0.2423879532511287 0  0.6707106781186547 0.2207106781186547 0  1.1 0 0  0 0.205 0  1.1 0.41 0  0.55 0 0  0.55 0.41 0  0.275 0 0  0.8250000000000001 0 0  0.275 0.41 0  0.8250000000000001 0.41 0  0.6875 0 0  0.61875 0 0  1.65 0.41 0  1.65 0 0  1.375 0 0  1.375 0.41 0  1.925 0 0  1.925 0.41 0  1.5125 0.205 0  1.7875 0.205 0  0.9625000000000001 0.205 0  1.2375 0.205 0  2.2 0.205 0  1.99375 0.2152743902439024 0  0.4125 0.41 0  2.0625 0 0  2.0625 0.41 0  2.2 0.3075 0  1.7875 0.41 0  1.375 0.1486128048780488 0  1.5125 0 0  1.7875 0 0  1.5125 0.41 0  0.9625000000000001 0.41 0  0.4125 0 0  0.1375 0 0  0.1375 0.41 0  0.6875 0.41 0  0.9625000000000001 0 0  1.2375 0 0  1.1 0.1486128048780488 0  1.2375 0.41 0  1.65 0.1486128048780487 0  0.823495464168302 0.2603780552348366 0  0.3738707794507017 0.2720196349488618 0  0.3662291281331582 0.1311456406657909 0  1.676715909090909 0.2793064024390244 0  1.126715909090909 0.2793064024390244 0  1.348284090909091 0.2793064024390244 0  0.8287581077665108 0.1302150898054257 0  1.894702181800738 0.1282910975492754 0  2.092797818199262 0.1282910975492754 0  1.85625 0.3075 0  0 0.3075 0  0 0.1025 0  2.099172119769978 0.25625 0  0.4752414543992246 0.3180372603390748 0  1.99375 0.08395950269330846 0  1.459960956013612 0.3075 0  1.569025960719943 0.2986889805672169 0  1.03125 0.3278689922742084 0  1.959375 0.3126371951219512 0  1.749222215368287 0.1025 0  1.275777784631713 0.1025 0  0.9228016959331474 0.3075 0  1.000777784631713 0.1025 0  2.2 0.1025 0  1.225938124459196 0.3075 0  1.550777784631713 0.1025 0  1.44375 0.07430640243902442 0  1.16875 0.07430640243902439 0  0.7562500000000001 0.3358727844323386 0  0.89375 0 0  1.899250267340833 0.2229966846119207 0  0.61875 0.41 0  1.766482954545455 0.2934032012195123 0  1.046078563095834 0.2389031808701145 0  1.421109702350723 0.2261157654379721 0  0.07567171807980319 0.25625 0  0.2511897295290552 0.3235829392832554 0  0.07655002503762308 0.1488653460959645 0  0.1377245246847496 0.3206030474919778 0  0.6694099692696568 0.3242771941727899 0  0.9168971191497528 0.1295727156104653 0  0.7562500000000001 0 0  2.118919042110979 0.3422084711244843 0  2.13125 0 0  0.06875000000000001 0 0  1.30625 0.41 0  1.597888256393107 0.2173787389261347 0  0.34375 0.41 0  0.2493272016354703 0.08091360081773515 0  0.5588896233436766 0.3264056208677571 0  1.829299675393195 0.07400700849299596 0  0.1334079128307869 0.08523463035786674 0  1.71875 0.41 0  0.06875000000000001 0.41 0  1.16875 0.41 0  2.038220665644273 0.332420740103091 0  0.8810647413215221 0.2027360103977071 0  0.34375 0 0  0.7453891198966415 0.2471459041008237 0  0.42112093004955 0.1988123139090554 0  0.8314023090855964 0.3351170841770613 0  0.89375 0.41 0  0.7906250000000001 0.06615386481594063 0  1.452769549894695 0.1548122580621249 0  1.369219062229598 0.07430640243902442 0  1.30625 0 0  1.07420695807087 0.07430640243902439 0  1.720943423819132 0.1714577452753128 0  1.157188124459196 0.205 0  1.304056576180868 0.1714577452753128 0  1.67579304192913 0.07430640243902437 0  1.209670467133757 0.136210026696477 0  0.4312800784902823 0.08036147352247747 0  0.8723959680194693 0.07066860609690805 0  1.025335513626278 0.1700681449722324 0  0.7945632284247136 0.1940204203251442 0  0.378125 0.3452261501101892 0  0.3307109909790086 0.2037165635083759 0  0.3009701032039409 0.2702970083403109 0  0.20625 0.41 0  1.58125 0 0  0.4812500000000001 0 0  0.9838963872396855 0.2722244191167347 0  0.06772484939107212 0.3260067317374387 0  0.20625 0 0  1.58125 0.41 0  1.631724228912893 0.3381867502687533 0  1.825608881788174 0.14499488549201 0  1.85625 0 0  1.44375 0 0  1.44375 0.41 0  1.85625 0.41 0  2.13125 0.41 0  0.7562500000000001 0.41 0  0.4812500000000001 0.41 0  1.16875 0 0  1.03125 0.41 0  1.03125 0 0  1.71875 0 0  1.99375 0 0  1.99375 0.41 0  0.9408708167433545 0.0651989315768642 0  1.340625 0.3489494290853124 0  1.134375 0.3489494290853123 0  1.700180620188976 0.3438659752031281 0  0.29668452290037 0.1318471691375986 0  0.3175441051360096 0.06496934809856265 0  0.06509151636162461 0.08140814015999148 0  2.135782184673599 0.07126652247502523 0  1.668441847249787 0.2129203728327609 0  1.295782514339747 0.2378437748815763 0  1.409375 0.3520314716057996 0  2.129248544730567 0.1906135162504124 0  2.060771381434487 0.1989445750470348 0  2.013252586573865 0.1496169464686054 0  1.942766402200229 0.1734448904596831 0  1.895522487186454 0.06076163953489683 0  2.069553871656643 0.06605731020975725 0  0.4670911801404742 0.2498408582391372 0  0.7622743084658112 0.1264100838268133 0  1.274680914880868 0.3520219391081363 0  0.3148669572599245 0.3331753056385887 0  1.614713220494657 0.09473434380863296 0  1.72990325744076 0.2380068107952482 0  1.356580098625191 0.2120393231351682 0  2.034370752044885 0.2668681600792073 0  1.51768709249349 0.3426260931494756 0  1.561883724969884 0.1650446847858835 0  1.197344062229598 0.2523725417393646 0  1.804085235518364 0.3468178408964637 0  1.817887819205233 0.2589243285818559 0  1.905897727272727 0.3485060975609756 0  0.7296439733931823 0.06337466644369745 0  0.4250935971865949 0.1394919578475796 0  0.3773030136511669 0.05130372097998036 0  1.192836486056382 0.3562350748565544 0  1.1029124365364 0.226143510831178 0  1.28257088594801 0.2944411014911587 0  0.1905185804731426 0.06029880676029167 0  1.474860187679412 0.2504218616229368 0  1.406767003493824 0.2829282258560709 0  0.5209826960981064 0.2830664557824064 0  0.5131119502780163 0.3617405848213254 0  0.1948220106098172 0.3081993407644811 0  1.845656689180403 0.1998310418452388 0  2.144958525570388 0.2909790873294231 0  2.2 0.15375 0  0.8833025251326762 0.2625402923007629 0  0.171875 0.3653875762360952 0  1.57794966442982 0.3540357145964566 0  0.446875 0.366068291212731 0  0.4272051715206439 0.2891929346190664 0  1.508991196088596 0.1421783375065625 0  1.50436820029908 0.06143401634903343 0  1.223857000523521 0.08235548624535324 0  0.6137904613287555 0.3066826366281556 0  1.153316824384777 0.1289850171317838 0  0.9751573703656133 0.327632618473408 0  2.148922302309752 0.1258841779285271 0  0.9281250000000001 0.3643758685795699 0  1.621993280276081 0.2841214267927899 0  1.550118654119087 0.2461998729100966 0  1.327182649291491 0.1216967252533594 0  0.9939955742738924 0.04663549843168518 0  1.753125 0.04556020050186112 0  1.271875 0.04556020050186116 0  0.9734326767716519 0.1506854560854393 0  0.103125 0.3675775577080512 0  1.94956388244759 0.1180512551534177 0  1.949997712993411 0.04965831614304109 0  0.717433898748555 0.295596016333797 0  1.771961817615021 0.1530278789497521 0  1.909246823951428 0.2812757146784527 0  0 0.35875 0  1.050632804931928 0.1226269704412814 0  0.05695108326502596 0.2024009637347154 0  1.948575539857022 0.2445328248721197 0  1.697271520964565 0.1233917627620729 0  1.065625 0.3689344961371042 0  1.085849084308977 0.3170853572226867 0  0.1015495998772944 0.04226029099983852 0  1.577403511714593 0.05463601888079143 0  1.751571320346033 0.3651102912045228 0  2.2 0.35875 0  0.7441773632462837 0.1786786606458751 0  0 0.05125 0  1.466879772203159 0.3611261772912453 0  0.6282230348858767 0.3577675483994025 0  1.990280163552011 0.3564754268533217 0  1.17471064520912 0.2990917256188288 0  0 0.25625 0  2.2 0.25625 0  2.2 0.05125 0  0 0.15375 0  1.853978576207987 0.35875 0  1.515638456102889 0.2882700110184686 0  2.150453692751374 0.2387066338105111 0  1.323782677156475 0.04897634338873398 0  1.409375 0.03715320121951221 0  1.406484531114799 0.1087852750766809 0  1.134375 0.03715320121951219 0  0.721875 0.3729363922161693 0  0.7941695928236929 0.3696489254637395 0  0.7934827162619036 0.3013409431456604 0  1.627401732573545 0.04552157221025036 0  0.9352049974617431 0.2507047965699472 0  0.8763260682738339 0.3611103317460093 0  2.045405893604797 0.1105340662939892 0  1.255408269734577 0.1577307500159216 0  2.028125 0.03707597992059326 0  1.003030137506755 0.3689344961371042 0  1.248258025468107 0.2565907092181813 0  1.203125 0.03661323374043041 0  0.4800125512335631 0.0549472816999725 0  2.072662025974815 0.2975086504196739 0  0.240625 0.3729825336867542 0  1.113252391110535 0.10238286244357 0  1.071052763974265 0.1885202618768825 0  0.8738809401657862 0.3106483608284829 0  0.6786819423003397 0.2677558482644021 0  1.887722846421017 0.1760882698830035 0  1.472640588990488 0.1118278026240017 0  0.5843750000000001 0.41 0  1.865937103925594 0.2604137786483804 0  1.463913572748262 0.2030442564990043 0  1.376426316059077 0.3186741374914345 0  0.1038643885363755 0.2162701735320032 0  0.1769473813227781 0.1070849728467114 0  0.458787839809176 0.171541653775316 0  0.240625 0 0  0.04179569703428024 0.2877217852556549 0  0.1258346557601885 0.2699740073054968 0  1.722140693354707 0.282908100935778 0  0.41206179117512 0.2448172567039922 0  0.3702471778075604 0.2265217604228704 0  0.3714881805374215 0.1786967818665642 0  1.77397096061971 0.2481483237422926 0  2.105123889160691 0.03743885948498647 0  1.001138337938679 0.229719337663998 0  1.051242910646791 0.2854826559431138 0  1.395420985247586 0.18
[...]
<PointData  Vectors="f_37"> 
<DataArray  type="Float64"  Name="f_37"  NumberOfComponents="3" format="ascii">2.4976538950175717e-07 4.5375580381293814e-08 0.0000000000000000e+00  -4.4528307745239991e-06 -3.5607564850752593e-07 0.0000000000000000e+00  -6.5091179749581074e-07 8.9658670087262456e-10 0.0000000000000000e+00  -8.3916786791290284e-07 2.2096091673642219e-10 0.0000000000000000e+00  -2.5877041266536298e-08 3.1463212646276246e-07 0.0000000000000000e+00  1.3253992464189402e-07 -2.2664742825927151e-08 0.0000000000000000e+00  1.2428489623057936e-07 1.8748628224365049e-07 0.0000000000000000e+00  -9.4029773753414477e-07 -9.1841447837125430e-08 0.0000000000000000e+00  -8.1542551632422185e-07 -1.2219376855407127e-07 0.0000000000000000e+00  1.1629428087784895e-07 -4.8404843462856651e-07 0.0000000000000000e+00  -9.3657543414423647e-07 -5.0573341651851764e-07 0.0000000000000000e+00  -1.0262073326245444e-06 -2.3608027030080094e-07 0.0000000000000000e+00  3.5862588144944332e-07 2.0991040738535351e-07 0.0000000000000000e+00  -2.9960756367631999e-07 -1.9135344708069234e-07 0.0000000000000000e+00  -3.0053297624848500e-07 9.7691535175064617e-08 0.0000000000000000e+00  -8.5550154495353463e-07 -2.8053636328208827e-07 0.0000000000000000e+00  2.3377224734311997e-06 3.2704799603960037e-07 0.0000000000000000e+00  3.4820193651273373e-01 9.6819508299559806e-02 0.0000000000000000e+00  1.4886623560350035e-06 -1.2671890341895568e-07 0.0000000000000000e+00  -1.3592865758931339e-06 3.5710118096744041e-07 0.0000000000000000e+00  -1.3677004562744829e-06 -2.0465344619762070e-07 0.0000000000000000e+00  -4.0642787809641260e-09 -3.3092482033580512e-07 0.0000000000000000e+00  5.0678398697380095e-07 1.3299651834985040e-07 0.0000000000000000e+00  -5.2263977158850202e-07 -1.8627341674607128e-06 0.0000000000000000e+00  -3.2143762276261555e-06 -1.5528933605238031e-06 0.0000000000000000e+00  -4.5193385621378741e-06 -3.1744554925341000e-07 0.0000000000000000e+00  -4.4423439201613376e-06 -5.1434569817351565e-08 0.0000000000000000e+00  -3.7301651946471220e-07 1.7339994378629389e-07 0.0000000000000000e+00  2.5462400567425319e-06 -5.8770355550371004e-07 0.0000000000000000e+00  1.6583342562982473e-01 -4.3031112246753475e-07 0.0000000000000000e+00  -1.1450693333826282e-06 -5.9820296966920340e-08 0.0000000000000000e+00  2.9156300840599508e-06 4.2874633718600336e-08 0.0000000000000000e+00  -5.0436417496752015e-07 -9.7106185517125849e-08 0.0000000000000000e+00  4.0742932494613360e-07 4.8646927824161045e-08 0.0000000000000000e+00  -3.9703455762380564e-07 -1.5917879857878266e-08 0.0000000000000000e+00  -1.0450894967793933e-06 -4.1133776184182622e-09 0.0000000000000000e+00  -1.4747373517452981e-06 7.9831591642076089e-08 0.0000000000000000e+00  -2.5258203841760497e-06 -4.7993736039241782e-07 0.0000000000000000e+00  -8.8096930721992441e-06 -1.1923698948486735e-06 0.0000000000000000e+00  -1.2243428401257393e-06 -5.4898799925606866e-08 0.0000000000000000e+00  -9.4865564644089649e-07 -6.2502312988803174e-08 0.0000000000000000e+00  -2.8456161726472460e-06 5.9015612268601648e-07 0.0000000000000000e+00  8.2674227415958058e-07 1.6007631369584250e-07 0.0000000000000000e+00  -5.0276187178144607e-07 -4.3413276830317790e-10 0.0000000000000000e+00  -5.7737877206477464e-08 4.1016999569022062e-10 0.0000000000000000e+00  2.3271403148920783e-01 1.9433256930178354e-02 0.0000000000000000e+00  2.2684462983087994e-01 1.6629939571448980e-03 0.0000000000000000e+00  1.6529657148421723e-01 -4.3077200201558389e-03 0.0000000000000000e+00  3.0744743243469574e-01 -1.0111460030554016e-01 0.0000000000000000e+00  2.2690764811805009e-01 -3.8832982735947676e-05 0.0000000000000000e+00  2.2659673948179723e-01 -6.2319477212034535e-05 0.0000000000000000e+00  2.6535409677493611e-07 -4.1956908276561947e-09 0.0000000000000000e+00  1.5916742203047384e-07 2.9826568490430539e-10 0.0000000000000000e+00  -5.4504777571469109e-07 1.2832311166879657e-09 0.0000000000000000e+00  1.8640652329133553e-01 -3.1556855282026280e-05 0.0000000000000000e+00  -8.0317260376998887e-07 -9.6047685256472507e-09 0.0000000000000000e+00  2.4617215959801464e-01 -4.0169044410388266e-02 0.0000000000000000e+00  -1.1478099155572680e-06 -2.6095191789223327e-08 0.0000000000000000e+00  -9.8311585961593503e-07 -1.0655576421650908e-08 0.0000000000000000e+00  -1.3521142833816099e-06 -1.6895607595590744e-07 0.0000000000000000e+00  -4.3640146567947028e-07 -1.0009437731546313e-07 0.0000000000000000e+00  -4.0398723051025584e-07 -9.1129397577570372e-08 0.0000000000000000e+00  -8.4698255229385396e-07 -6.6140858144656880e-08 0.0000000000000000e+00  -3.6804471370430255e-07 -5.5218192372194357e-08 0.0000000000000000e+00  -2.3752337395843632e-06 7.4053241829285975e-08 0.0000000000000000e+00  -2.5288084468456834e-07 4.2163567015817265e-08 0.0000000000000000e+00  -1.0824652823461640e-07 -2.6295466890920453e-07 0.0000000000000000e+00  1.3952621212302860e-01 -1.4079967409361968e-02 0.0000000000000000e+00  4.4134030877356614e-07 1.9062376135060357e-07 0.0000000000000000e+00  2.2045513705114472e-01 7.4487551668849265e-03 0.0000000000000000e+00  2.6334429663732073e-01 -3.7695806754679248e-02 0.0000000000000000e+00  1.0634952694634284e-01 5.3683038149168107e-03 0.0000000000000000e+00  3.0488658295311649e-01 1.0663165033244368e-01 0.0000000000000000e+00  2.0453872858598959e-01 4.9082434921294575e-03 0.0000000000000000e+00  3.4822151477858088e-01 -7.2603703832669550e-02 0.0000000000000000e+00  2.0098002016458821e-01 -1.3945744600490955e-02 0.0000000000000000e+00  7.0958022373885959e-02 4.9288838033502563e-02 0.0000000000000000e+00  2.0644712550450808e-01 1.1641740943710411e-04 0.0000000000000000e+00  2.0638208198607111e-01 -6.0987302105223457e-05 0.0000000000000000e+00  1.8632924357425754e-01 1.8897659704181281e-04 0.0000000000000000e+00  7.5234904988652221e-02 4.9749864842781340e-08 0.0000000000000000e+00  2.7319254749247257e-01 1.7480473929049821e-08 0.0000000000000000e+00  2.1865316765231019e-01 -7.1500433963152363e-05 0.0000000000000000e+00  2.4126920362878257e-01 7.2302129996395195e-02 0.0000000000000000e+00  1.6561852924407969e-01 -5.3941814525922233e-05 0.0000000000000000e+00  1.5461510517810842e-01 1.8459952340482016e-02 0.0000000000000000e+00  1.8168618740440431e-01 1.2420988064636434e-02 0.0000000000000000e+00  3.1749222051509951e-01 -3.4420886414985120e-02 0.0000000000000000e+00  1.8136188528607525e-01 -6.0931721117897725e-05 0.0000000000000000e+00  1.8750458342120971e-01 1.5163158937871754e-03 0.0000000000000000e+00  1.4041976805185372e-01 -6.2177653675320785e-02 0.0000000000000000e+00  3.9262098812343227e-01 -3.8048039179209167e-02 0.0000000000000000e+00  4.6946057032128542e-02 2.2331200536591593e-02 0.0000000000000000e+00  1.8625943678218404e-01 -2.0447110178306782e-05 0.0000000000000000e+00  2.1917420949810876e-01 -4.4512268173886378e-02 0.0000000000000000e+00  1.9998672457538991e-01 8.7743195930227585e-03 0.0000000000000000e+00  1.7154727903325329e-01 -3.1278503570887598e-03 0.0000000000000000e+00  2.3541127570458932e-02 -1.8497378006000310e-02 0.0000000000000000e+00  4.2582322494607544e-01 -3.5730936415211981e-02 0.0000000000000000e+00  -5.8842898848396145e-07 7.6332673451299026e-08 0.0000000000000000e+00  2.2593304216956817e-01 1.8432720767266097e-04 0.0000000000000000e+00  -9.3264155191531834e-07 -5.7887689706768937e-09 0.0000000000000000e+00  1.9754780433870794e-01 1.3063867486664750e-03 0.0000000000000000e+00  3.0139664008165273e-01 -4.4176928839114865e-02 0.0000000000000000e+00  2.4126493463135956e-01 5.3410405119277042e-03 0.0000000000000000e+00  1.2571027621119063e-01 7.1171893675179690e-02 0.0000000000000000e+00  2.3118751906590115e-01 1.4887846650260231e-02 0.0000000000000000e+00  2.0879018113600228e-01 2.4394681122884575e-02 0.0000000000000000e+00  1.4758154648979871e-01 7.4021965631236156e-02 0.0000000000000000e+00  4.5632969323445371e-01 -1.3752771252232518e-02 0.0000000000000000e+00  7.5482123990802966e-02 2.8367024429288516e-02 0.0000000000000000e+00  -2.2049669503320657e-07 -8.1900098987243182e-08 0.0000000000000000e+00  1.4329681890375731e-01 -3.2185919507325523e-05 0.0000000000000000e+00  -1.6238074193963226e-06 -1.0270795728933342e-10 0.0000000000000000e+00  -1.2890096431835165e-06 8.8421432577017571e-09 0.0000000000000000e+00  1.6304211663715199e-06 3.9676564630089417e-07 0.0000000000000000e+00  2.2506617187416000e-01 1.3984421398567244e-02 0.0000000000000000e+00  -1.9139464209266992e-06 -2.4191059916171688e-08 0.0000000000000000e+00  4.0379996891770631e-01 4.2486068663580304e-02 0.0000000000000000e+00  3.7428013410940797e-01 7.6956859583711720e-02 0.0000000000000000e+00  1.5244318428864242e-01 2.1788841868360180e-04 0.0000000000000000e+00  3.4359906361129117e-01 1.3160690386776209e-02 0.0000000000000000e+00  -1.0863920347111534e-06 -3.2703264318640821e-08 0.0000000000000000e+00  -7.4569074752245475e-08 -8.2485609816952084e-09 0.0000000000000000e+00  -5.8555654778505330e-07 1.4792764195741467e-08 0.0000000000000000e+00  1.5755812147804751e-01 -5.7302619813830795e-05 0.0000000000000000e+00  1.0453554110688683e-01 2.5413070689197688e-03 0.0000000000000000e+00  -3.1722813746499648e-07 -9.6074648502564075e-08 0.0000000000000000e+00  1.4573362038128584e-01 -2.5552632494580604e-02 0.0000000000000000e+00  1.5511212421200266e-01 1.4930584494414090e-01 0.0000000000000000e+00  3.9546573142039176e-01 -3.4018760656308857e-02 0.0000000000000000e+00  1.8451672013447031e-06 -1.0245008042838487e-07 0.0000000000000000e+00  1.1435805926346339e-01 4.8272051838298781e-02 0.0000000000000000e+00  2.4151658114395066e-01 -1.6785218695599544e-04 0.0000000000000000e+00  1.5205185618449257e-01 -2.3561231315173965e-02 0.0000000000000000e+00  -2.5941907118969816e-06 3.6315206254293862e-07 0.0000000000000000e+00  7.0601453880017716e-03 1.0732748378888766e-02 0.0000000000000000e+00  2.2448074783763491e-01 3.8438371534269939e-03 0.0000000000000000e+00  2.8967304034995794e-01 -7.9721949243937523e-02 0.0000000000000000e+00  2.7109154072244007e-01 -8.1884753637002955e-02 0.0000000000000000e+00  1.5616619602849335e-01 2.4159230234219627e-03 0.0000000000000000e+00  1.7071038757524293e-01 -7.0088257198887269e-02 0.0000000000000000e+00  2.3856153941125333e-01 2.4767569006645423e-02 0.0000000000000000e+00  6.0595935953226536e-02 1.9124808889430245e-02 0.0000000000000000e+00  1.4280216645129171e-01 5.3196532164751283e-03 0.0000000000000000e+00  2.5114851925179899e-02 9.9201364132911977e-03 0.0000000000000000e+00  2.1201899473961511e-01 7.6280840004690521e-03 0.0000000000000000e+00  3.5599480780555283e-02 1.5934462397241434e-02 0.0000000000000000e+00  1.0130629677425673e-01 -1.9987200535983119e-02 0.0000000000000000e+00  -9.3887747455822356e-07 -1.1078119591219125e-07 0.0000000000000000e+00  -1.7273531134503189e-07 -6.9187875037481308e-08 0.0000000000000000e+00  -7.4233079068932373e-07 3.8089969980567725e-07 0.0000000000000000e+00  3.5361285632190093e-01 -4.2172766322710220e-02 0.0000000000000000e+00  7.8040314720720372e-02 3.1199461664706055e-02 0.0000000000000000e+00  -2.2462399363560967e-06 -1.0214047386581657e-07 0.0000000000000000e+00  -1.3848975526927195e-06 -1.1143055446838255e-07 0.0000000000000000e+00  1.4360785733414830e-01 3.6668009781220048e-03 0.0000000000000000e+00  2.1542142024123109e-01 7.2149551592254519e-04 0.0000000000000000e+00  -7.1755563746336347e-07 -2.3164070756780869e-09 0.0000000000000000e+00  -1.5069387495126618e-06 2.2426970043327282e-07 0.0000000000000000e+00  -7.5972760773681119e-07 -1.3916942022607940e-07 0.0000000000000000e+00  -1.3286435664692542e-07 -1.5200202100106396e-09 0.0000000000000000e+00  -9.6545226772499681e-08 5.4387215720244695e-10 0.0000000000000000e+00  3.7624134959624238e-07 -4.5719733520963115e-09 0.0000000000000000e+00  -2.2133114757591811e-06 -2.6902091198477832e-07 0.0000000000000000e+00  2.5724531949728078e-06 -7.5505392383718822e-07 0.0000000000000000e+00  -2.4804848512545385e-07 -1.2230997311328663e-07 0.0000000000000000e+00  8.3034824050131178e-07 -1.0703003455685609e-07 0.0000000000000000e+00  2.1195985046550158e-07 -2.0645420810265863e-08 0.0000000000000000e+00  -8.9452383589203605e-07 1.0001817553262479e-09 0.0000000000000000e+00  -3.0003942326784749e-07 4.3100271490195538e-10 0.0000000000000000e+00  3.1312921210554082e-02 1.2606958179381665e-02 0.0000000000000000e+00  8.4373829423709981e-02 -1.6618374798994938e-03 0.0000000000000000e+00  1.7760653831680204e-01 -2.1552495736051173e-02 0.0000000000000000e+00  1.3872775798672127e-01 1.4044332193407583e-03 0.0000000000000000e+00  2.9171291473001265e-01 7.5975248976093215e-02 0.0000000000000000e+00  3.3714984800032888e-01 5.3575389865870349e-02 0.0000000000000000e+00  3.1541418494964618e-01 2.6274509245748621e-02 0.0000000000000000e+00  1.4834164218982826e-01 -2.0315333303750571e-05 0.0000000000000000e+00  2.2599809604301310e-01 7.3068062986423547e-03 0.0000000000000000e+00  2.8609026243865965e-01 -6.6724810484149383e-02 0.0000000000000000e+00  8.4212719089945251e-02 6.8572173946720820e-03 0.0000000000000000e+00  2.2629063881477512e-01 -6.3851986739614749e-05 0.0000000000000000e+00  2.2678361854085846e-01 -8.4920341066345095e-05 0.0000000000000000e+00  2.1697978428184586e-01 -8.2274939250901764e-05 0.0000000000000000e+00  2.2389291369188977e-01 8.1169434090472970e-06 0.0000000000000000e+00  1.3175627351835831e-01 -6.2099764606954479e-07 0.0000000000000000e+00  1.4037726887776322e-01 -2.9474412602239626e-05 0.0000000000000000e+00  1.9842300594295503e-01 1.8983113124585727e-01 0.0000000000000000e+00  4.2003861429056467e-02 4.6819677581693739e-02 0.0000000000000000e+00  9.2435834784523621e-02 -1.0457003144807060e-02 0.0000000000000000e+00  2.1992357389536832e-01 -4.8945111973655534e-03 0.0000000000000000e+00  1.8604317475928012e-01 6.0189038033354250e-03 0.0000000000000000e+00  2.2255900219487959e-01 3.3548058151707341e-03 0.0000000000000000e+00  2.7292031177235920e-01 -3.7983305453221324e-02 0.0000000000000000e+00  2.1445090120937346e-01 -7.9336018558274045e-05 0.0000000000000000e+00  1.2180678139283842e-01 9.2435004261036905e-03 0.0000000000000000e+00  2.2968843849988602e-01 1.4405528153501081e-02 0.0000000000000000e+00  3.3144029892566224e-01 -9.1449114298232534e-02 0.0000000000000000e+00  1.3587335926294553e-01 2.4800848277520130e-04 0.0000000000000000e+00  2.1727610686057577e-01 8.2162963450090932e-04 0.0000000000000000e+00  1.3340467356798041e-01 -1.5545117333276515e-05 0.0000000000000000e+00  1.6303537966576656e-01 7.7419075549182981e-02 0.0000000000000000e+00  2.4631883991569553e-01 1.3004015560931426e-01 0.0000000000000000e+00  2.1964660435394281e-01 3.1000313912103773e-02 0.0000000000000000e+00  1.1993727515250872e-01 -1.4210949128837393e-02 0.0000000000000000e+00  3.0356577874702073e-01 -6.1321633178680196e-02 0.0000000000000000e+00  2.0641344790622224e-01 -3.6747096958551322e-02 0.0000000000000000e+00  3.9248477078415950e-01 1.8037324441355026e-02 0.0000000000000000e+00  2.1279510914286140e-01 2.2659290009477532e-02 0.0000000000000000e+00  1.8225608028862528e-01 1.1397569287890139e-02 0.0000000000000000e+00  3.4028635215893532e-01 1.8277222486778955e-01 0.0000000000000000e+00  2.7741836706086048e-01 3.6220404182508235e-02 0.0000000000000000e+00  2.3159235349193258e-01 7.2477716051549526e-02 0.0000000000000000e+00  2.2682319373389848e-01 6.4580647693512558e-04 0.0000000000000000e+00  2.0034670116876427e-01 -5.3386689940120145e-05 0.0000000000000000e+00  2.1856101719246832e-01 -3.0127444811599590e-05 0.0000000000000000e+00  2.9760854289914102e-01 -3.6259889881066563e-02 0.0000000000000000e+00  1.2561211574311631e-01 2.5561906593026450e-02 0.0000000000000000e+00  1.1376043578312105e-01 4.3849229889739291e-03 0.0000000000000000e+00  2.0998110004491027e-01 2.1461369998404718e-02 0.0000000000000000e+00  1.5892221986935806e-01 4.9376171008905914e-02 0.0000000000000000e+00  2.2930642362133782e-01 1.0712336009128898e-02 0.0000000000000000e+00  1.5071234276374276e-01 3.6753491322660641e-03 0.0000000000000000e+00  6.7698345437636476e-02 -4.1319096040748522e-02 0.0000000000000000e+00  4.6285646098546923e-01 4.2518191671661439e-02 0.0000000000000000e+00  1.2274291593235964e-01 -3.5692649518252142e-02 0.0000000000000000e+00  3.4745817503296450e-01 -3.1447485325794111e-02 0.0000000000000000e+00  2.0489802751207373e-01 -3.7129646515552611e-05 0.0000000000000000e+00  2.3695774763493116e-01 -1.2861018559038982e-02 0.0000000000000000e+00  1.9826822126040883e-01 8.6155176502747347e-03 0.0000000000000000e+00  2.1479001650206248e-01 1.9177618270607669e-02 0.0000000000000000e+00  2.0243633233051817e-01 -6.0920893874224405e-02 0.0000000000000000e+00  5.8804984030793534e-03 9.0013516058994273e-03 0.0000000000000000e+00  1.0519723620919082e-01 4.0542869303775034e-04 0.0000000000000000e+00  4.8286767293624029e-02 -2.0418456971889088e-02 0.0000000000000000e+00  9.7442208150941845e-02 2.1000746244950488e-02 0.0000000000000000e+00  6.2738460129086709e-02 1.7618888205358112e-02 0.0000000000000000e+00  1.9940047988224091e-01 -3.5022044899395682e-05 0.0000000000000000e+00  1.1222261654437214e-01 -3.3236146108752252e-05 0.0000000000000000e+00  4.0302417855642064e-01 -4.0380404222548912e-02 0.0000000000000000e+00  2.1901773628995710e-01 1.7940073741972574e-03 0.0000000000000000e+00  2.0677469149194808e-01 4.4336823623183093e-05 0.0000000000000000e+00  3.5785430839696798e-02 8.5982613613668192e-08 0.0000000000000000e+00  7.5717119060545138e-02 1.4390356623634391e-02 0.0000000000000000e+00  1.5903502881852716e-01 4.2017785806455328e-02 0.0000000000000000e+00  2.2214651058174126e-01 -4.4836585585623373e-06 0.0000000000000000e+00  2.0593825213844788e-01 3.7635390715314234e-03 0.0000000000000000e+00  1.4974380253230679e-01 -1.0488694779773712e-02 0.0000000000000000e+00  3.1133928010831086e-01 -4.5431379147836327e-02 0.0000000000000000e+00  3.8095589927048101e-01 3.5631923511503960e-02 0.0000000000000000e+00  1.3122370077855638e-01 3.3986701797238299e-03 0.0000000000000000e+00  1.0296574480553014e-01 3.5760775390334754e-04 0.0000000000000000e+00  1.1538959852994266e-01 -1.8528164371563398e-05 0.0000000000000000e+00  -7.0401514309382856e-03 1.2917105659055265e-02 0.0000000000000000e+00  3.3356379491269222e-01 3.0517271401121159e-08 0.0000000000000000e+00  8.2103153732372855e-02 6.7311333298289717e-03 0.0000000000000000e+00  3.9080578228642288e-01 3.1978833213711423e-03 0.0000000000000000e+00  1.1966459439826155e-01 -4.0898362862093841e-05 0.0000000000000000e+00  2.8350909667616042e-01 -6.0409228381728387e-02 0.0000000000000000e+00  1.1852650421721600e-01 -2.4825035835886914e-08 0.0000000000000000e+00  2.1863899028220615e-01 -2.6350199007078896e-05 0.0000000000000000e+00  1.1528841267631651e-01 -2.3577904326297035e-06 0.0000000000000000e+00  2.1733315100357720e-01 -2.8218321131035194e-08 0.0000000000000000e+00  1.1557044769896967e-01 3.9023340455110117e-05 0.0000000000000000e+00  1.8337880361717768e-01 1.9539334229362160e-02 0.0000000000000000e+00  2.2350148836245115e-01 -5.0001665933447259e-05 0.0000000000000000e+00  8.8729800390054847e-02 -1.9594137854485695e-02 0.0000000000000000e+00  1.0061336681859483e-01 -3.5570919938113419e-03 0.0000000000000000e+00  2.0714457348126722e-01 -2.0221499108247550e-02 0.0000000000000000e+00  -2.2607211105341061e-02 3.2970179005081196e-05 0.0000000000000000e+00  3.1143591534605031e-01 -1.6446260665755899e-02 0.0000000000000000e+00  2.8479639981024202e-01 -1.6949444389674169e-02 0.0000000000000000e+00  4.0866054105932637e-01 -4.5667503106886553e-02 0.0000000000000000e+00  1.0965935187070415e-01 1.8114136672163575e-03 0.0000000000000000e+00  2.7745222164902855e-01 -3.1074086327721458e-02 0.0000000000000000e+00  2.7958510859781693e-01 -1.6715028074302668e-02 0.0000000000000000e+00  1.9345793172857909e-01 -6.4042978443600563e-05 0.0000000000000000e+00  2.3995540138484059e-01 -9.1711608600677050e-02 0.0000000000000000e+00  8.7572411737116204e-02 -1.6032836770860438e-05 0.0000000000000000e+00  1.8028648535018546e-01 -1.0223707234743267e-02 0.0000000000000000e+00  2.970