<?xml version="1.0"?>
<VTKFile type="UnstructuredGrid"  version="0.1"  >
<UnstructuredGrid>
<Piece  NumberOfPoints="1404" NumberOfCells="2604">
<Points>
<DataArray  type="Float64"  NumberOfComponents="3"  format="ascii">0 0.41 0  0 0 0  2.2 0 0  2.2 0.41 0  0.2353553390593274 0.2353553390593274 0  0.25 0.2 0  0.2353553390593274 0.1646446609406726 0  0.2 0.15 0  0.1646446609406726 0.1646446609406726 0  0.15 0.2 0  0.1646446609406726 0.2353553390593274 0  0.2 0.25 0  0.6923879532511287 0.188268343236509 0  0.7 0.15 0  0.6923879532511287 0.1117316567634909 0  0.6707106781186547 0.07928932188134523 0  0.6382683432365089 0.05761204674887133 0  0.6 0.04999999999999999 0  0.5617316567634909 0.05761204674887134 0  0.5292893218813453 0.07928932188134524 0  0.5076120467488713 0.111731656763491 0  0.5 0.15 0  0.5076120467488713 0.188268343236509 0  0.5292893218813453 0.2207106781186547 0  0.561731656763491 0.2423879532511287 0  0.6 0.25 0  0.6382683432365089 0.2423879532511287 0  0.6707106781186547 0.2207106781186547 0  1.1 0 0  0 0.205 0  1.1 0.41 0  0.55 0 0  0.55 0.41 0  0.275 0 0  0.8250000000000001 0 0  0.275 0.41 0  0.8250000000000001 0.41 0  0.6875 0 0  0.61875 0 0  1.65 0.41 0  1.65 0 0  1.375 0 0  1.375 0.41 0  1.925 0 0  1.925 0.41 0  1.5125 0.205 0  1.7875 0.205 0  0.9625000000000001 0.205 0  1.2375 0.205 0  2.2 0.205 0  1.99375 0.2152743902439024 0  0.4125 0.41 0  2.0625 0 0  2.0625 0.41 0  2.2 0.3075 0  1.7875 0.41 0  1.375 0.1486128048780488 0  1.5125 0 0  1.7875 0 0  1.5125 0.41 0  0.9625000000000001 0.41 0  0.4125 0 0  0.1375 0 0  0.1375 0.41 0  0.6875 0.41 0  0.9625000000000001 0 0  1.2375 0 0  1.1 0.1486128048780488 0  1.2375 0.41 0  1.65 0.1486128048780487 0  0.823495464168302 0.2603780552348366 0  0.3738707794507017 0.2720196349488618 0  0.3662291281331582 0.1311456406657909 0  1.676715909090909 0.2793064024390244 0  1.126715909090909 0.2793064024390244 0  1.348284090909091 0.2793064024390244 0  0.8287581077665108 0.1302150898054257 0  1.894702181800738 0.1282910975492754 0  2.092797818199262 0.1282910975492754 0  1.85625 0.3075 0  0 0.3075 0  0 0.1025 0  2.099172119769978 0.25625 0  0.4752414543992246 0.3180372603390748 0  1.99375 0.08395950269330846 0  1.459960956013612 0.3075 0  1.569025960719943 0.2986889805672169 0  1.03125 0.3278689922742084 0  1.959375 0.3126371951219512 0  1.749222215368287 0.1025 0  1.275777784631713 0.1025 0  0.9228016959331474 0.3075 0  1.000777784631713 0.1025 0  2.2 0.1025 0  1.225938124459196 0.3075 0  1.550777784631713 0.1025 0  1.44375 0.07430640243902442 0  1.16875 0.07430640243902439 0  0.7562500000000001 0.3358727844323386 0  0.89375 0 0  1.899250267340833 0.2229966846119207 0  0.61875 0.41 0  1.766482954545455 0.2934032012195123 0  1.046078563095834 0.2389031808701145 0  1.421109702350723 0.2261157654379721 0  0.07567171807980319 0.25625 0  0.2511897295290552 0.3235829392832554 0  0.07655002503762308 0.1488653460959645 0  0.1377245246847496 0.3206030474919778 0  0.6694099692696568 0.3242771941727899 0  0.9168971191497528 0.1295727156104653 0  0.7562500000000001 0 0  2.118919042110979 0.3422084711244843 0  2.13125 0 0  0.06875000000000001 0 0  1.30625 0.41 0  1.597888256393107 0.2173787389261347 0  0.34375 0.41 0  0.2493272016354703 0.08091360081773515 0  0.5588896233436766 0.3264056208677571 0  1.829299675393195 0.07400700849299596 0  0.1334079128307869 0.08523463035786674 0  1.71875 0.41 0  0.06875000000000001 0.41 0  1.16875 0.41 0  2.038220665644273 0.332420740103091 0  0.8810647413215221 0.2027360103977071 0  0.34375 0 0  0.7453891198966415 0.2471459041008237 0  0.42112093004955 0.1988123139090554 0  0.8314023090855964 0.3351170841770613 0  0.89375 0.41 0  0.7906250000000001 0.06615386481594063 0  1.452769549894695 0.1548122580621249 0  1.369219062229598 0.07430640243902442 0  1.30625 0 0  1.07420695807087 0.07430640243902439 0  1.720943423819132 0.1714577452753128 0  1.157188124459196 0.205 0  1.304056576180868 0.1714577452753128 0  1.67579304192913 0.07430640243902437 0  1.209670467133757 0.136210026696477 0  0.4312800784902823 0.08036147352247747 0  0.8723959680194693 0.07066860609690805 0  1.025335513626278 0.1700681449722324 0  0.7945632284247136 0.1940204203251442 0  0.378125 0.3452261501101892 0  0.3307109909790086 0.2037165635083759 0  0.3009701032039409 0.2702970083403109 0  0.20625 0.41 0  1.58125 0 0  0.4812500000000001 0 0  0.9838963872396855 0.2722244191167347 0  0.06772484939107212 0.3260067317374387 0  0.20625 0 0  1.58125 0.41 0  1.631724228912893 0.3381867502687533 0  1.825608881788174 0.14499488549201 0  1.85625 0 0  1.44375 0 0  1.44375 0.41 0  1.85625 0.41 0  2.13125 0.41 0  0.7562500000000001 0.41 0  0.4812500000000001 0.41 0  1.16875 0 0  1.03125 0.41 0  1.03125 0 0  1.71875 0 0  1.99375 0 0  1.99375 0.41 0  0.9408708167433545 0.0651989315768642 0  1.340625 0.3489494290853124 0  1.134375 0.3489494290853123 0  1.700180620188976 0.3438659752031281 0  0.29668452290037 0.1318471691375986 0  0.3175441051360096 0.06496934809856265 0  0.06509151636162461 0.08140814015999148 0  2.135782184673599 0.07126652247502523 0  1.668441847249787 0.2129203728327609 0  1.295782514339747 0.2378437748815763 0  1.409375 0.3520314716057996 0  2.129248544730567 0.1906135162504124 0  2.060771381434487 0.1989445750470348 0  2.013252586573865 0.1496169464686054 0  1.942766402200229 0.1734448904596831 0  1.895522487186454 0.06076163953489683 0  2.069553871656643 0.06605731020975725 0  0.4670911801404742 0.2498408582391372 0  0.7622743084658112 0.1264100838268133 0  1.274680914880868 0.3520219391081363 0  0.3148669572599245 0.3331753056385887 0  1.614713220494657 0.09473434380863296 0  1.72990325744076 0.2380068107952482 0  1.356580098625191 0.2120393231351682 0  2.034370752044885 0.2668681600792073 0  1.51768709249349 0.3426260931494756 0  1.561883724969884 0.1650446847858835 0  1.197344062229598 0.2523725417393646 0  1.804085235518364 0.3468178408964637 0  1.817887819205233 0.2589243285818559 0  1.905897727272727 0.3485060975609756 0  0.7296439733931823 0.06337466644369745 0  0.4250935971865949 0.1394919578475796 0  0.3773030136511669 0.05130372097998036 0  1.192836486056382 0.3562350748565544 0  1.1029124365364 0.226143510831178 0  1.28257088594801 0.2944411014911587 0  0.1905185804731426 0.06029880676029167 0  1.474860187679412 0.2504218616229368 0  1.406767003493824 0.2829282258560709 0  0.5209826960981064 0.2830664557824064 0  0.5131119502780163 0.3617405848213254 0  0.1948220106098172 0.3081993407644811 0  1.845656689180403 0.1998310418452388 0  2.144958525570388 0.2909790873294231 0  2.2 0.15375 0  0.8833025251326762 0.2625402923007629 0  0.171875 0.3653875762360952 0  1.57794966442982 0.3540357145964566 0  0.446875 0.366068291212731 0  0.4272051715206439 0.2891929346190664 0  1.508991196088596 0.1421783375065625 0  1.50436820029908 0.06143401634903343 0  1.223857000523521 0.08235548624535324 0  0.6137904613287555 0.3066826366281556 0  1.153316824384777 0.1289850171317838 0  0.9751573703656133 0.327632618473408 0  2.148922302309752 0.1258841779285271 0  0.9281250000000001 0.3643758685795699 0  1.621993280276081 0.2841214267927899 0  1.550118654119087 0.2461998729100966 0  1.327182649291491 0.1216967252533594 0  0.9939955742738924 0.04663549843168518 0  1.753125 0.04556020050186112 0  1.271875 0.04556020050186116 0  0.9734326767716519 0.1506854560854393 0  0.103125 0.3675775577080512 0  1.94956388244759 0.1180512551534177 0  1.949997712993411 0.04965831614304109 0  0.717433898748555 0.295596016333797 0  1.771961817615021 0.1530278789497521 0  1.909246823951428 0.2812757146784527 0  0 0.35875 0  1.050632804931928 0.1226269704412814 0  0.05695108326502596 0.2024009637347154 0  1.948575539857022 0.2445328248721197 0  1.697271520964565 0.1233917627620729 0  1.065625 0.3689344961371042 0  1.085849084308977 0.3170853572226867 0  0.1015495998772944 0.04226029099983852 0  1.577403511714593 0.05463601888079143 0  1.751571320346033 0.3651102912045228 0  2.2 0.35875 0  0.7441773632462837 0.1786786606458751 0  0 0.05125 0  1.466879772203159 0.3611261772912453 0  0.6282230348858767 0.3577675483994025 0  1.990280163552011 0.3564754268533217 0  1.17471064520912 0.2990917256188288 0  0 0.25625 0  2.2 0.25625 0  2.2 0.05125 0  0 0.15375 0  1.853978576207987 0.35875 0  1.515638456102889 0.2882700110184686 0  2.150453692751374 0.2387066338105111 0  1.323782677156475 0.04897634338873398 0  1.409375 0.03715320121951221 0  1.406484531114799 0.1087852750766809 0  1.134375 0.03715320121951219 0  0.721875 0.3729363922161693 0  0.7941695928236929 0.3696489254637395 0  0.7934827162619036 0.3013409431456604 0  1.627401732573545 0.04552157221025036 0  0.9352049974617431 0.2507047965699472 0  0.8763260682738339 0.3611103317460093 0  2.045405893604797 0.1105340662939892 0  1.255408269734577 0.1577307500159216 0  2.028125 0.03707597992059326 0  1.003030137506755 0.3689344961371042 0  1.248258025468107 0.2565907092181813 0  1.203125 0.03661323374043041 0  0.4800125512335631 0.0549472816999725 0  2.072662025974815 0.2975086504196739 0  0.240625 0.3729825336867542 0  1.113252391110535 0.10238286244357 0  1.071052763974265 0.1885202618768825 0  0.8738809401657862 0.3106483608284829 0  0.6786819423003397 0.2677558482644021 0  1.887722846421017 0.1760882698830035 0  1.472640588990488 0.1118278026240017 0  0.5843750000000001 0.41 0  1.865937103925594 0.2604137786483804 0  1.463913572748262 0.2030442564990043 0  1.376426316059077 0.3186741374914345 0  0.1038643885363755 0.2162701735320032 0  0.1769473813227781 0.1070849728467114 0  0.458787839809176 0.171541653775316 0  0.240625 0 0  0.04179569703428024 0.2877217852556549 0  0.1258346557601885 0.2699740073054968 0  1.722140693354707 0.282908100935778 0  0.41206179117512 0.2448172567039922 0  0.3702471778075604 0.2265217604228704 0  0.3714881805374215 0.1786967818665642 0  1.77397096061971 0.2481483237422926 0  2.105123889160691 0.03743885948498647 0  1.001138337938679 0.229719337663998 0  1.051242910646791 0.2854826559431138 0  1.395420985247586 0.18
[...]
<PointData  Vectors="f_37"> 
<DataArray  type="Float64"  Name="f_37"  NumberOfComponents="3" format="ascii">2.5358149480425455e-07 5.0426196683669191e-08 0.0000000000000000e+00  -4.4423367178506785e-06 -3.6518440591490129e-07 0.0000000000000000e+00  -6.5911369397818232e-07 3.9661438730749195e-10 0.0000000000000000e+00  -8.7241136441977199e-07 6.8614475147561978e-11 0.0000000000000000e+00  2.9239176876820205e-08 1.8030059411944563e-07 0.0000000000000000e+00  2.2959554702857962e-07 -2.6488575647982701e-07 0.0000000000000000e+00  1.7316312140743475e-07 9.9471086735900132e-08 0.0000000000000000e+00  -8.9636620819244476e-07 -1.1432314238562211e-07 0.0000000000000000e+00  -7.4995508967928670e-07 -1.9045460674299453e-07 0.0000000000000000e+00  1.0394627813430513e-07 -5.9099588141198150e-07 0.0000000000000000e+00  -1.0228723015983006e-06 -5.4748812541866410e-07 0.0000000000000000e+00  -1.1111236745801887e-06 -2.1965099264670456e-07 0.0000000000000000e+00  3.3082946607660066e-07 5.7282588499802697e-07 0.0000000000000000e+00  -4.0307598918377067e-07 -2.8305695835269327e-07 0.0000000000000000e+00  -3.6875534152542842e-07 -6.6051177043348970e-08 0.0000000000000000e+00  -1.5588253132799052e-06 -5.1300336522884578e-07 0.0000000000000000e+00  1.7141165229221110e-06 4.6093705012661982e-07 0.0000000000000000e+00  3.4630978567660375e-01 9.6436584105468084e-02 0.0000000000000000e+00  2.1960164510092486e-06 6.8875958573810092e-07 0.0000000000000000e+00  1.3995679200515425e-08 2.6531229158529626e-07 0.0000000000000000e+00  -1.4427745152548823e-06 1.2930913837488578e-07 0.0000000000000000e+00  -2.0614290327534411e-07 -5.1738276804467059e-07 0.0000000000000000e+00  -2.7712371393497647e-07 -6.0640216056316153e-07 0.0000000000000000e+00  -1.3746554984722644e-06 -1.7094527374623464e-06 0.0000000000000000e+00  -3.2506257688871151e-06 -8.5456494722768865e-07 0.0000000000000000e+00  -4.0205313339767805e-06 -2.8495919377427694e-08 0.0000000000000000e+00  -4.1443139580750898e-06 -1.6235777708420774e-07 0.0000000000000000e+00  -4.2730383600583152e-07 2.7607376274995291e-07 0.0000000000000000e+00  8.8016293271739769e-07 -2.6111501284935917e-07 0.0000000000000000e+00  1.6583343557280769e-01 -4.7129373932625898e-07 0.0000000000000000e+00  9.4258498691483674e-08 3.0138473306414171e-07 0.0000000000000000e+00  3.1087146812727634e-06 8.0683797799748576e-07 0.0000000000000000e+00  -4.4474516458378971e-07 -8.5136237930105798e-08 0.0000000000000000e+00  4.6648616290557393e-07 5.6224648981396443e-08 0.0000000000000000e+00  -2.7016362073352713e-07 -1.4838717985590670e-08 0.0000000000000000e+00  -9.8455897963976634e-07 -1.3929387250733493e-08 0.0000000000000000e+00  -1.5820540418119542e-06 -5.9580372758876730e-08 0.0000000000000000e+00  -2.6626341244613444e-06 -5.1993402702730026e-07 0.0000000000000000e+00  -9.4011389459692088e-06 -9.7897957429919860e-07 0.0000000000000000e+00  -9.9900967027693829e-07 -1.0380194530295574e-08 0.0000000000000000e+00  -1.2013175225334911e-06 -1.4536204393472264e-08 0.0000000000000000e+00  -7.4140863043967826e-07 7.5355804916722087e-08 0.0000000000000000e+00  -1.3531670147054220e-06 -1.6351191092810767e-07 0.0000000000000000e+00  -4.9600841427677513e-07 -4.9896129163184460e-10 0.0000000000000000e+00  -6.6439425452733734e-08 -1.1931178038504430e-10 0.0000000000000000e+00  2.2059261370881222e-01 5.6554141256684246e-03 0.0000000000000000e+00  2.2050953726738889e-01 4.0399832715883591e-04 0.0000000000000000e+00  2.0047950742514886e-01 -1.7533213999119942e-02 0.0000000000000000e+00  2.7412085272023934e-01 -5.1446568654997159e-02 0.0000000000000000e+00  2.2053273676704635e-01 -4.5312639123875325e-06 0.0000000000000000e+00  2.2032060558378389e-01 1.7230082226133884e-05 0.0000000000000000e+00  3.5999000602793769e-07 2.4348892862396617e-08 0.0000000000000000e+00  1.7485538998026985e-07 3.6125464949402613e-10 0.0000000000000000e+00  -5.6304369855412245e-07 6.2567602481387488e-10 0.0000000000000000e+00  1.8840661461620611e-01 -1.0379862573916028e-05 0.0000000000000000e+00  -8.1937472794470967e-07 -2.7076067983421490e-09 0.0000000000000000e+00  2.2105679239256298e-01 4.6839184062265587e-04 0.0000000000000000e+00  -1.0596482788109415e-06 -3.5447810828431687e-08 0.0000000000000000e+00  -1.0185443699638508e-06 -2.6052483172141800e-09 0.0000000000000000e+00  -8.9043354311365287e-07 -4.1010131066577875e-08 0.0000000000000000e+00  -5.4721493151963553e-07 -1.3176201967176145e-07 0.0000000000000000e+00  -4.7506094546938421e-07 -7.8478851622824332e-08 0.0000000000000000e+00  -7.8922826515994284e-07 -6.6863350600020862e-08 0.0000000000000000e+00  -4.2574660433283368e-07 -6.8146460238408442e-08 0.0000000000000000e+00  -2.2956083622081653e-06 1.2309936588499896e-07 0.0000000000000000e+00  2.1616585084448158e-06 -5.7091331690378376e-07 0.0000000000000000e+00  -2.4737935474100274e-06 4.6633211440347563e-07 0.0000000000000000e+00  1.6621173775279088e-01 -7.9524234464077137e-02 0.0000000000000000e+00  1.3762493019289383e-06 1.9700715696557481e-07 0.0000000000000000e+00  2.1423865830234640e-01 1.5426594326254763e-03 0.0000000000000000e+00  2.6556038167967599e-01 -3.4807804515939046e-02 0.0000000000000000e+00  1.0809091681874224e-01 3.7291246002595208e-03 0.0000000000000000e+00  3.0511537801487248e-01 1.0707654897858263e-01 0.0000000000000000e+00  2.0593569618626614e-01 1.0082271737152655e-03 0.0000000000000000e+00  3.0091639598392317e-01 -7.6661074244766397e-02 0.0000000000000000e+00  1.9843195522399737e-01 1.5659689548569680e-02 0.0000000000000000e+00  6.8766829676209132e-02 6.0520732259954725e-02 0.0000000000000000e+00  2.0555732434805993e-01 6.9711976352417016e-05 0.0000000000000000e+00  2.0548982529660037e-01 2.8321660871455021e-06 0.0000000000000000e+00  1.8831794892906176e-01 7.4882000415684284e-05 0.0000000000000000e+00  7.5234908452065027e-02 3.9960236143595137e-08 0.0000000000000000e+00  2.7319256026945360e-01 -1.4195828224144338e-08 0.0000000000000000e+00  2.1486141396905500e-01 -3.3535514456341570e-06 0.0000000000000000e+00  2.3897615692571755e-01 7.1446155110656870e-02 0.0000000000000000e+00  1.6949922355797831e-01 2.9293384573240008e-06 0.0000000000000000e+00  1.8121238893565658e-01 6.3437211671991097e-03 0.0000000000000000e+00  1.9278149398101585e-01 2.4866868341901676e-03 0.0000000000000000e+00  2.7701923030622977e-01 -4.8912156777316938e-02 0.0000000000000000e+00  1.8378559604795602e-01 2.7182827942947915e-06 0.0000000000000000e+00  1.8872848856139277e-01 3.4146437606537180e-04 0.0000000000000000e+00  1.8103369932562433e-01 -2.9020744483393791e-02 0.0000000000000000e+00  3.9933006439651247e-01 -5.4993514004502635e-02 0.0000000000000000e+00  3.2033196733546314e-02 7.3187940851964454e-03 0.0000000000000000e+00  1.8834604441262781e-01 1.9649606948610401e-06 0.0000000000000000e+00  1.7650647216698809e-01 -6.9662002829741342e-03 0.0000000000000000e+00  1.9146943642231978e-01 2.6851559787735456e-03 0.0000000000000000e+00  1.6515754135913291e-01 3.0718195478280264e-03 0.0000000000000000e+00  8.2270908599836559e-02 -4.2290498446066638e-02 0.0000000000000000e+00  4.2991377453734431e-01 -3.4791140587047104e-02 0.0000000000000000e+00  5.6790449700755829e-07 -1.6320895417965088e-07 0.0000000000000000e+00  2.1990298616860407e-01 9.1344075854593533e-05 0.0000000000000000e+00  -8.9589518515587235e-07 8.7585174091333533e-08 0.0000000000000000e+00  1.9859699094350702e-01 3.2712787220288210e-04 0.0000000000000000e+00  3.4355169348029602e-01 -9.6408227226405172e-02 0.0000000000000000e+00  2.2030351317185204e-01 9.9767169277579469e-03 0.0000000000000000e+00  1.2576772003059802e-01 7.1492673006652060e-02 0.0000000000000000e+00  2.3156724140414034e-01 1.4209119547789034e-02 0.0000000000000000e+00  2.0872413650731622e-01 2.4680699872886385e-02 0.0000000000000000e+00  1.4776543009488233e-01 7.4204954957330274e-02 0.0000000000000000e+00  4.5934252464850228e-01 -1.1362596542925442e-02 0.0000000000000000e+00  6.4410026546084548e-02 3.7932079152865832e-02 0.0000000000000000e+00  -2.4987861481612049e-07 -1.0285904748419026e-07 0.0000000000000000e+00  1.4777082659219870e-01 -5.3753566603415137e-06 0.0000000000000000e+00  -1.6592895156929137e-06 -1.4469444167015741e-09 0.0000000000000000e+00  -1.2527708371409851e-06 5.6480537893941881e-09 0.0000000000000000e+00  -4.4508644695436070e-07 -2.0604119473491419e-07 0.0000000000000000e+00  2.1983902496358146e-01 2.8424980423659451e-03 0.0000000000000000e+00  -1.7806882267242130e-06 7.9128210653613258e-09 0.0000000000000000e+00  4.0329791602173309e-01 4.2826167400343958e-02 0.0000000000000000e+00  3.7357653962656467e-01 7.8039089296157896e-02 0.0000000000000000e+00  1.5684004318528291e-01 6.4208681967270787e-05 0.0000000000000000e+00  3.4343551834404001e-01 1.3432936447935249e-02 0.0000000000000000e+00  -1.0290153559403295e-06 -6.6749423981605679e-09 0.0000000000000000e+00  -9.2298123797069008e-08 -3.4955695764799419e-09 0.0000000000000000e+00  1.7349894876970355e-06 4.2743835406057999e-07 0.0000000000000000e+00  1.6157171036634804e-01 -6.9525311484383538e-06 0.0000000000000000e+00  1.2103350307640519e-01 1.3716963659596961e-02 0.0000000000000000e+00  -3.0732141804971155e-07 -7.5852317022016790e-08 0.0000000000000000e+00  1.4115535138374269e-01 -2.3479448414133408e-02 0.0000000000000000e+00  1.5765496911073326e-01 1.4906876551814580e-01 0.0000000000000000e+00  4.0036835825874112e-01 -3.7472540200403401e-02 0.0000000000000000e+00  1.6234361430506692e-06 -2.2673934460309474e-07 0.0000000000000000e+00  1.0354298650796002e-01 5.0870479543549729e-02 0.0000000000000000e+00  2.1911026614051499e-01 6.1227851968749403e-03 0.0000000000000000e+00  1.6705629715047088e-01 8.7922263267712863e-05 0.0000000000000000e+00  -1.1598878595650167e-06 2.6144888934250131e-07 0.0000000000000000e+00  1.6806336098932131e-02 -2.1343031367418348e-02 0.0000000000000000e+00  2.1851143788654373e-01 8.0796243030613183e-04 0.0000000000000000e+00  3.0140919028144247e-01 -1.0569069952466646e-01 0.0000000000000000e+00  2.3854618382697101e-01 -1.9610930606747012e-02 0.0000000000000000e+00  1.5796184173139527e-01 5.2365295601678320e-04 0.0000000000000000e+00  1.9920568398462007e-01 -7.4021116176445440e-02 0.0000000000000000e+00  2.3677686036979409e-01 2.4935188374359422e-02 0.0000000000000000e+00  4.2104316191022534e-02 2.4826632426094349e-02 0.0000000000000000e+00  1.6850979306384495e-01 -3.6052410561814248e-02 0.0000000000000000e+00  3.1437765207845754e-02 2.1142061025217172e-02 0.0000000000000000e+00  2.1064878685614691e-01 7.3690345432489510e-03 0.0000000000000000e+00  3.5911282594069588e-02 1.5663323778120582e-02 0.0000000000000000e+00  1.0314946193290754e-01 -2.0533031006020587e-02 0.0000000000000000e+00  -9.6901581556321427e-07 -1.4047385204860178e-07 0.0000000000000000e+00  -4.2856166297707332e-07 -2.0271557453546686e-08 0.0000000000000000e+00  -6.1045781048690405e-07 3.6937340999882735e-07 0.0000000000000000e+00  3.7856432451824351e-01 -7.5147454748840464e-02 0.0000000000000000e+00  7.8080179981811673e-02 3.1395807046070708e-02 0.0000000000000000e+00  -2.1711316479618897e-06 -1.0174068920875485e-07 0.0000000000000000e+00  -8.2082474035656498e-07 -1.8391012588281213e-08 0.0000000000000000e+00  1.5235824114209454e-01 7.5234415185475257e-04 0.0000000000000000e+00  2.1239086722371089e-01 2.0332581575238385e-04 0.0000000000000000e+00  -7.1254865512127601e-07 -7.5600791283345823e-10 0.0000000000000000e+00  -5.2465083529231593e-07 -4.5634765030839668e-08 0.0000000000000000e+00  -1.5353476246088633e-06 -9.8336951623698017e-08 0.0000000000000000e+00  -1.4730267063366622e-07 -5.2006551282264248e-10 0.0000000000000000e+00  -9.7339643467517783e-08 -6.2334880202858012e-11 0.0000000000000000e+00  3.9864544549417340e-07 -8.1706415449865552e-08 0.0000000000000000e+00  -2.1407026605503601e-06 -2.6940438411710695e-07 0.0000000000000000e+00  -2.8633586565239588e-06 3.7268894118707856e-07 0.0000000000000000e+00  -3.1441111387997923e-07 4.5200332949140606e-08 0.0000000000000000e+00  3.0824840154230183e-06 -7.1433344805472254e-07 0.0000000000000000e+00  1.4871063050759812e-07 -4.2751708304624738e-09 0.0000000000000000e+00  -9.1130045733216622e-07 5.1474012673081201e-10 0.0000000000000000e+00  -3.1315960403772184e-07 -1.3935400244524094e-10 0.0000000000000000e+00  7.6937914624020630e-03 1.7373808810354316e-02 0.0000000000000000e+00  1.1371600661247169e-01 8.1602553262120781e-03 0.0000000000000000e+00  1.2622995865112066e-01 -1.6840093291182048e-02 0.0000000000000000e+00  1.4468937906471974e-01 3.1065762870277999e-04 0.0000000000000000e+00  2.9184902030051718e-01 7.6551743965595276e-02 0.0000000000000000e+00  3.3597289011659004e-01 5.3828472859872113e-02 0.0000000000000000e+00  3.1537683166114888e-01 2.6409093663141311e-02 0.0000000000000000e+00  1.5284530976926991e-01 7.6097188420987807e-06 0.0000000000000000e+00  2.2025784706208482e-01 1.4651560592172197e-03 0.0000000000000000e+00  2.3990270049878751e-01 -7.0596868429141277e-04 0.0000000000000000e+00  1.1936899706769614e-01 4.8636446818113863e-03 0.0000000000000000e+00  2.2014070965244642e-01 -2.9789465158960573e-06 0.0000000000000000e+00  2.2044968429724601e-01 -1.8491064721014074e-06 0.0000000000000000e+00  2.1369922902226876e-01 7.5812474620584147e-07 0.0000000000000000e+00  2.1856989374128027e-01 3.8507322984126060e-05 0.0000000000000000e+00  1.3664659476287244e-01 1.1606533069583912e-05 0.0000000000000000e+00  1.4507471446020967e-01 7.2379659173625376e-06 0.0000000000000000e+00  2.0178041614646566e-01 1.9035269420826612e-01 0.0000000000000000e+00  4.5611797374686076e-02 5.7738966411049891e-02 0.0000000000000000e+00  9.6781195634185899e-02 6.3670783779247115e-03 0.0000000000000000e+00  2.1977369077187087e-01 -5.6083027598851113e-03 0.0000000000000000e+00  1.8292891813921158e-01 1.3797295188751615e-03 0.0000000000000000e+00  2.1812702035671236e-01 7.2516787316828527e-04 0.0000000000000000e+00  2.3102436162332765e-01 6.5757604260735219e-03 0.0000000000000000e+00  2.1173667190674433e-01 3.9893834680618665e-06 0.0000000000000000e+00  1.4272958302468944e-01 2.1733405143021757e-03 0.0000000000000000e+00  2.1855824536234467e-01 3.6468146501147294e-03 0.0000000000000000e+00  2.8036393860581799e-01 -5.5510920376081289e-02 0.0000000000000000e+00  1.4047949641069413e-01 7.0841849753143537e-05 0.0000000000000000e+00  2.1401414724053328e-01 2.3322008862444941e-04 0.0000000000000000e+00  1.3784697892582687e-01 9.1664698639708326e-06 0.0000000000000000e+00  1.6027221477801562e-01 8.1328287108946018e-02 0.0000000000000000e+00  2.4712389073213570e-01 1.3037981354965864e-01 0.0000000000000000e+00  2.1791404867948436e-01 3.1072513731731921e-02 0.0000000000000000e+00  8.9189717350266304e-02 -4.6841528708986835e-03 0.0000000000000000e+00  3.3193892315291590e-01 -1.1232132207928919e-01 0.0000000000000000e+00  1.8545042273449661e-01 9.7829030027748818e-03 0.0000000000000000e+00  3.9205704904820560e-01 1.8246992282449210e-02 0.0000000000000000e+00  2.1343384239783708e-01 7.4742783139968771e-03 0.0000000000000000e+00  1.9697402910356029e-01 1.1766885429164788e-02 0.0000000000000000e+00  3.4363717047911929e-01 1.8477174028775897e-01 0.0000000000000000e+00  2.7449563392413751e-01 3.5903435737490615e-02 0.0000000000000000e+00  2.3198819919095637e-01 7.2232540763224343e-02 0.0000000000000000e+00  2.2047008926272288e-01 1.9986453232463422e-04 0.0000000000000000e+00  2.0045685338538724e-01 -1.4827713993342064e-05 0.0000000000000000e+00  2.1483824065257373e-01 1.0385924394885122e-06 0.0000000000000000e+00  3.1228076825969392e-01 -4.0481006105362920e-02 0.0000000000000000e+00  1.2596572108031975e-01 2.5494094490665597e-02 0.0000000000000000e+00  1.2625714368523561e-01 9.1724377972004329e-04 0.0000000000000000e+00  2.0794022004651122e-01 2.1377737934213138e-02 0.0000000000000000e+00  1.5904885258720169e-01 4.7839892196068913e-02 0.0000000000000000e+00  2.1442045502729123e-01 4.7945102668125556e-03 0.0000000000000000e+00  1.4273761922930955e-01 1.9488928732959046e-03 0.0000000000000000e+00  1.3283674322005107e-01 -3.8775995105420395e-02 0.0000000000000000e+00  4.6676344652325008e-01 4.5072423162028578e-02 0.0000000000000000e+00  1.5633886458930538e-01 -8.3344772560707353e-02 0.0000000000000000e+00  3.3068838629567660e-01 -4.9374953579206189e-02 0.0000000000000000e+00  2.0428353566817831e-01 8.1625415079275512e-06 0.0000000000000000e+00  2.2414343834506351e-01 -1.8557710249985759e-02 0.0000000000000000e+00  2.0288582672838884e-01 1.6895422427694452e-03 0.0000000000000000e+00  2.1541618939415438e-01 4.0605653320572024e-03 0.0000000000000000e+00  2.0762857243782579e-01 -1.2212179949481124e-02 0.0000000000000000e+00  -1.5516597484631885e-02 6.3730267508909626e-03 0.0000000000000000e+00  1.0928181264944262e-01 9.7716113338477557e-05 0.0000000000000000e+00  1.0651219395541539e-01 -8.8040094545145785e-03 0.0000000000000000e+00  9.9182080992310240e-02 1.2878101704225021e-02 0.0000000000000000e+00  6.2960535563654413e-02 1.7756886878597007e-02 0.0000000000000000e+00  1.9978080329240600e-01 1.9346913070385021e-05 0.0000000000000000e+00  1.1696645958339413e-01 -1.4040926550260848e-06 0.0000000000000000e+00  4.0457521609337771e-01 -3.8341728787771270e-02 0.0000000000000000e+00  2.1483967933333026e-01 4.1625765889935018e-04 0.0000000000000000e+00  2.0569999857830251e-01 4.1037517879342173e-05 0.0000000000000000e+00  3.5785435953138114e-02 8.5663351237433877e-08 0.0000000000000000e+00  7.7798119542506011e-02 -2.9326122637041690e-02 0.0000000000000000e+00  1.5903518318174290e-01 4.2265990747168664e-02 0.0000000000000000e+00  2.1733352702489303e-01 4.0263360166431398e-05 0.0000000000000000e+00  2.0358940673784476e-01 7.9397851672459408e-04 0.0000000000000000e+00  1.1142655030449385e-01 -1.1392553950438571e-02 0.0000000000000000e+00  2.5389522497523193e-01 -5.2272180728990029e-02 0.0000000000000000e+00  3.8080095883177617e-01 3.5746133393546140e-02 0.0000000000000000e+00  1.2843991245920638e-01 9.2461870972910469e-04 0.0000000000000000e+00  1.0756531889217280e-01 8.8803365172940413e-05 0.0000000000000000e+00  1.1991986841449088e-01 -8.7726854600977807e-06 0.0000000000000000e+00  -4.0874616464816787e-03 1.7338219891262115e-02 0.0000000000000000e+00  3.3356381389462142e-01 1.1583290041328723e-08 0.0000000000000000e+00  1.0868984305184731e-01 2.2384117786806790e-03 0.0000000000000000e+00  3.8957176613459465e-01 4.3357357753709804e-03 0.0000000000000000e+00  1.2412610176030933e-01 -3.3838621577063253e-06 0.0000000000000000e+00  2.1981486175837972e-01 -3.5815323302991781e-02 0.0000000000000000e+00  1.1852650864366690e-01 -5.3874171841401622e-08 0.0000000000000000e+00  2.1486726468193731e-01 5.0242929460033110e-06 0.0000000000000000e+00  1.1990910413323945e-01 8.9204578163421749e-06 0.0000000000000000e+00  2.1733316418182416e-01 -6.6525858540500284e-08 0.0000000000000000e+00  1.1993585400103970e-01 1.7239973941400129e-05 0.0000000000000000e+00  1.9820084859876447e-01 4.4839862114374341e-03 0.0000000000000000e+00  2.1827629391695022e-01 2.5879712000367585e-07 0.0000000000000000e+00  1.2386778903710220e-01 -3.0112505656035814e-03 0.0000000000000000e+00  1.0037628783991873e-01 1.0336287889478241e-03 0.0000000000000000e+00  2.0124147384317356e-01 3.2082396274104009e-03 0.0000000000000000e+00  1.6781777238555364e-02 -1.3325739492089865e-02 0.0000000000000000e+00  3.1339068858119390e-01 -1.5914082593537250e-02 0.0000000000000000e+00  2.8772495380650515e-01 -1.7673037715312905e-02 0.0000000000000000e+00  4.1236325454037337e-01 -4.5376014589738521e-02 0.0000000000000000e+00  1.1020512331213496e-01 4.2202151970145143e-04 0.0000000000000000e+00  3.0793462008474509e-01 -4.5840017721900807e-02 0.0000000000000000e+00  2.7720578442530924e-01 -2.1246369294249778e-02 0.0000000000000000e+00  1.9470668063104507e-01 4.8606186710267791e-06 0.0000000000000000e+00  2.3532352511659149e-01 -5.0204162024702716e-02 0.0000000000000000e+00  9.1632347019211732e-02 3.7110637248369118e-06 0.0000000000000000e+00  1.5058655887473654e-01 -1.3851742511486053e-02 0.0000000000000000e+00  2.4470460079551717e-01 -1.70758