<?xml version="1.0"?>
<VTKFile type="UnstructuredGrid"  version="0.1"  >
<UnstructuredGrid>
<Piece  NumberOfPoints="1404" NumberOfCells="2604">
<Points>
<DataArray  type="Float64"  NumberOfComponents="3"  format="ascii">0 0.41 0  0 0 0  2.2 0 0  2.2 0.41 0  0.2353553390593274 0.2353553390593274 0  0.25 0.2 0  0.2353553390593274 0.1646446609406726 0  0.2 0.15 0  0.1646446609406726 0.1646446609406726 0  0.15 0.2 0  0.1646446609406726 0.2353553390593274 0  0.2 0.25 0  0.6923879532511287 0.188268343236509 0  0.7 0.15 0  0.6923879532511287 0.1117316567634909 0  0.6707106781186547 0.07928932188134523 0  0.6382683432365089 0.05761204674887133 0  0.6 0.04999999999999999 0  0.5617316567634909 0.05761204674887134 0  0.5292893218813453 0.07928932188134524 0  0.5076120467488713 0.111731656763491 0  0.5 0.15 0  0.5076120467488713 0.188268343236509 0  0.5292893218813453 0.2207106781186547 0  0.561731656763491 0.2423879532511287 0  0.6 0.25 0  0.6382683432365089 0.2423879532511287 0  0.6707106781186547 0.2207106781186547 0  1.1 0 0  0 0.205 0  1.1 0.41 0  0.55 0 0  0.55 0.41 0  0.275 0 0  0.8250000000000001 0 0  0.275 0.41 0  0.8250000000000001 0.41 0  0.6875 0 0  0.61875 0 0  1.65 0.41 0  1.65 0 0  1.375 0 0  1.375 0.41 0  1.925 0 0  1.925 0.41 0  1.5125 0.205 0  1.7875 0.205 0  0.9625000000000001 0.205 0  1.2375 0.205 0  2.2 0.205 0  1.99375 0.2152743902439024 0  0.4125 0.41 0  2.0625 0 0  2.0625 0.41 0  2.2 0.3075 0  1.7875 0.41 0  1.375 0.1486128048780488 0  1.5125 0 0  1.7875 0 0  1.5125 0.41 0  0.9625000000000001 0.41 0  0.4125 0 0  0.1375 0 0  0.1375 0.41 0  0.6875 0.41 0  0.9625000000000001 0 0  1.2375 0 0  1.1 0.1486128048780488 0  1.2375 0.41 0  1.65 0.1486128048780487 0  0.823495464168302 0.2603780552348366 0  0.3738707794507017 0.2720196349488618 0  0.3662291281331582 0.1311456406657909 0  1.676715909090909 0.2793064024390244 0  1.126715909090909 0.2793064024390244 0  1.348284090909091 0.2793064024390244 0  0.8287581077665108 0.1302150898054257 0  1.894702181800738 0.1282910975492754 0  2.092797818199262 0.1282910975492754 0  1.85625 0.3075 0  0 0.3075 0  0 0.1025 0  2.099172119769978 0.25625 0  0.4752414543992246 0.3180372603390748 0  1.99375 0.08395950269330846 0  1.459960956013612 0.3075 0  1.569025960719943 0.2986889805672169 0  1.03125 0.3278689922742084 0  1.959375 0.3126371951219512 0  1.749222215368287 0.1025 0  1.275777784631713 0.1025 0  0.9228016959331474 0.3075 0  1.000777784631713 0.1025 0  2.2 0.1025 0  1.225938124459196 0.3075 0  1.550777784631713 0.1025 0  1.44375 0.07430640243902442 0  1.16875 0.07430640243902439 0  0.7562500000000001 0.3358727844323386 0  0.89375 0 0  1.899250267340833 0.2229966846119207 0  0.61875 0.41 0  1.766482954545455 0.2934032012195123 0  1.046078563095834 0.2389031808701145 0  1.421109702350723 0.2261157654379721 0  0.07567171807980319 0.25625 0  0.2511897295290552 0.3235829392832554 0  0.07655002503762308 0.1488653460959645 0  0.1377245246847496 0.3206030474919778 0  0.6694099692696568 0.3242771941727899 0  0.9168971191497528 0.1295727156104653 0  0.7562500000000001 0 0  2.118919042110979 0.3422084711244843 0  2.13125 0 0  0.06875000000000001 0 0  1.30625 0.41 0  1.597888256393107 0.2173787389261347 0  0.34375 0.41 0  0.2493272016354703 0.08091360081773515 0  0.5588896233436766 0.3264056208677571 0  1.829299675393195 0.07400700849299596 0  0.1334079128307869 0.08523463035786674 0  1.71875 0.41 0  0.06875000000000001 0.41 0  1.16875 0.41 0  2.038220665644273 0.332420740103091 0  0.8810647413215221 0.2027360103977071 0  0.34375 0 0  0.7453891198966415 0.2471459041008237 0  0.42112093004955 0.1988123139090554 0  0.8314023090855964 0.3351170841770613 0  0.89375 0.41 0  0.7906250000000001 0.06615386481594063 0  1.452769549894695 0.1548122580621249 0  1.369219062229598 0.07430640243902442 0  1.30625 0 0  1.07420695807087 0.07430640243902439 0  1.720943423819132 0.1714577452753128 0  1.157188124459196 0.205 0  1.304056576180868 0.1714577452753128 0  1.67579304192913 0.07430640243902437 0  1.209670467133757 0.136210026696477 0  0.4312800784902823 0.08036147352247747 0  0.8723959680194693 0.07066860609690805 0  1.025335513626278 0.1700681449722324 0  0.7945632284247136 0.1940204203251442 0  0.378125 0.3452261501101892 0  0.3307109909790086 0.2037165635083759 0  0.3009701032039409 0.2702970083403109 0  0.20625 0.41 0  1.58125 0 0  0.4812500000000001 0 0  0.9838963872396855 0.2722244191167347 0  0.06772484939107212 0.3260067317374387 0  0.20625 0 0  1.58125 0.41 0  1.631724228912893 0.3381867502687533 0  1.825608881788174 0.14499488549201 0  1.85625 0 0  1.44375 0 0  1.44375 0.41 0  1.85625 0.41 0  2.13125 0.41 0  0.7562500000000001 0.41 0  0.4812500000000001 0.41 0  1.16875 0 0  1.03125 0.41 0  1.03125 0 0  1.71875 0 0  1.99375 0 0  1.99375 0.41 0  0.9408708167433545 0.0651989315768642 0  1.340625 0.3489494290853124 0  1.134375 0.3489494290853123 0  1.700180620188976 0.3438659752031281 0  0.29668452290037 0.1318471691375986 0  0.3175441051360096 0.06496934809856265 0  0.06509151636162461 0.08140814015999148 0  2.135782184673599 0.07126652247502523 0  1.668441847249787 0.2129203728327609 0  1.295782514339747 0.2378437748815763 0  1.409375 0.3520314716057996 0  2.129248544730567 0.1906135162504124 0  2.060771381434487 0.1989445750470348 0  2.013252586573865 0.1496169464686054 0  1.942766402200229 0.1734448904596831 0  1.895522487186454 0.06076163953489683 0  2.069553871656643 0.06605731020975725 0  0.4670911801404742 0.2498408582391372 0  0.7622743084658112 0.1264100838268133 0  1.274680914880868 0.3520219391081363 0  0.3148669572599245 0.3331753056385887 0  1.614713220494657 0.09473434380863296 0  1.72990325744076 0.2380068107952482 0  1.356580098625191 0.2120393231351682 0  2.034370752044885 0.2668681600792073 0  1.51768709249349 0.3426260931494756 0  1.561883724969884 0.1650446847858835 0  1.197344062229598 0.2523725417393646 0  1.804085235518364 0.3468178408964637 0  1.817887819205233 0.2589243285818559 0  1.905897727272727 0.3485060975609756 0  0.7296439733931823 0.06337466644369745 0  0.4250935971865949 0.1394919578475796 0  0.3773030136511669 0.05130372097998036 0  1.192836486056382 0.3562350748565544 0  1.1029124365364 0.226143510831178 0  1.28257088594801 0.2944411014911587 0  0.1905185804731426 0.06029880676029167 0  1.474860187679412 0.2504218616229368 0  1.406767003493824 0.2829282258560709 0  0.5209826960981064 0.2830664557824064 0  0.5131119502780163 0.3617405848213254 0  0.1948220106098172 0.3081993407644811 0  1.845656689180403 0.1998310418452388 0  2.144958525570388 0.2909790873294231 0  2.2 0.15375 0  0.8833025251326762 0.2625402923007629 0  0.171875 0.3653875762360952 0  1.57794966442982 0.3540357145964566 0  0.446875 0.366068291212731 0  0.4272051715206439 0.2891929346190664 0  1.508991196088596 0.1421783375065625 0  1.50436820029908 0.06143401634903343 0  1.223857000523521 0.08235548624535324 0  0.6137904613287555 0.3066826366281556 0  1.153316824384777 0.1289850171317838 0  0.9751573703656133 0.327632618473408 0  2.148922302309752 0.1258841779285271 0  0.9281250000000001 0.3643758685795699 0  1.621993280276081 0.2841214267927899 0  1.550118654119087 0.2461998729100966 0  1.327182649291491 0.1216967252533594 0  0.9939955742738924 0.04663549843168518 0  1.753125 0.04556020050186112 0  1.271875 0.04556020050186116 0  0.9734326767716519 0.1506854560854393 0  0.103125 0.3675775577080512 0  1.94956388244759 0.1180512551534177 0  1.949997712993411 0.04965831614304109 0  0.717433898748555 0.295596016333797 0  1.771961817615021 0.1530278789497521 0  1.909246823951428 0.2812757146784527 0  0 0.35875 0  1.050632804931928 0.1226269704412814 0  0.05695108326502596 0.2024009637347154 0  1.948575539857022 0.2445328248721197 0  1.697271520964565 0.1233917627620729 0  1.065625 0.3689344961371042 0  1.085849084308977 0.3170853572226867 0  0.1015495998772944 0.04226029099983852 0  1.577403511714593 0.05463601888079143 0  1.751571320346033 0.3651102912045228 0  2.2 0.35875 0  0.7441773632462837 0.1786786606458751 0  0 0.05125 0  1.466879772203159 0.3611261772912453 0  0.6282230348858767 0.3577675483994025 0  1.990280163552011 0.3564754268533217 0  1.17471064520912 0.2990917256188288 0  0 0.25625 0  2.2 0.25625 0  2.2 0.05125 0  0 0.15375 0  1.853978576207987 0.35875 0  1.515638456102889 0.2882700110184686 0  2.150453692751374 0.2387066338105111 0  1.323782677156475 0.04897634338873398 0  1.409375 0.03715320121951221 0  1.406484531114799 0.1087852750766809 0  1.134375 0.03715320121951219 0  0.721875 0.3729363922161693 0  0.7941695928236929 0.3696489254637395 0  0.7934827162619036 0.3013409431456604 0  1.627401732573545 0.04552157221025036 0  0.9352049974617431 0.2507047965699472 0  0.8763260682738339 0.3611103317460093 0  2.045405893604797 0.1105340662939892 0  1.255408269734577 0.1577307500159216 0  2.028125 0.03707597992059326 0  1.003030137506755 0.3689344961371042 0  1.248258025468107 0.2565907092181813 0  1.203125 0.03661323374043041 0  0.4800125512335631 0.0549472816999725 0  2.072662025974815 0.2975086504196739 0  0.240625 0.3729825336867542 0  1.113252391110535 0.10238286244357 0  1.071052763974265 0.1885202618768825 0  0.8738809401657862 0.3106483608284829 0  0.6786819423003397 0.2677558482644021 0  1.887722846421017 0.1760882698830035 0  1.472640588990488 0.1118278026240017 0  0.5843750000000001 0.41 0  1.865937103925594 0.2604137786483804 0  1.463913572748262 0.2030442564990043 0  1.376426316059077 0.3186741374914345 0  0.1038643885363755 0.2162701735320032 0  0.1769473813227781 0.1070849728467114 0  0.458787839809176 0.171541653775316 0  0.240625 0 0  0.04179569703428024 0.2877217852556549 0  0.1258346557601885 0.2699740073054968 0  1.722140693354707 0.282908100935778 0  0.41206179117512 0.2448172567039922 0  0.3702471778075604 0.2265217604228704 0  0.3714881805374215 0.1786967818665642 0  1.77397096061971 0.2481483237422926 0  2.105123889160691 0.03743885948498647 0  1.001138337938679 0.229719337663998 0  1.051242910646791 0.2854826559431138 0  1.395420985247586 0.18
[...]
<PointData  Vectors="f_37"> 
<DataArray  type="Float64"  Name="f_37"  NumberOfComponents="3" format="ascii">2.5247176603266279e-07 5.0937600428062513e-08 0.0000000000000000e+00  -4.4539402497190992e-06 -3.5279261221493357e-07 0.0000000000000000e+00  -6.8115338541569416e-07 4.6275284859787293e-10 0.0000000000000000e+00  -9.0883835032273880e-07 -3.0074134216191021e-11 0.0000000000000000e+00  -1.8724093245222329e-07 3.0751770249168856e-07 0.0000000000000000e+00  1.4492842617884544e-07 -2.2096531560785612e-07 0.0000000000000000e+00  2.6055818890556778e-07 7.3654004007890807e-08 0.0000000000000000e+00  -8.5018661664412872e-07 -2.7392877137890177e-07 0.0000000000000000e+00  -1.0954840758360881e-06 -1.5406976216204623e-07 0.0000000000000000e+00  1.9070581653769703e-07 -3.5779489340131949e-07 0.0000000000000000e+00  -9.7049828801030839e-07 -6.0859937989020172e-07 0.0000000000000000e+00  -1.2900556201360912e-06 -2.8854548437559649e-07 0.0000000000000000e+00  6.5789760520238685e-07 2.9343884324021743e-07 0.0000000000000000e+00  -5.7860707462581663e-07 -9.2158150431937105e-07 0.0000000000000000e+00  -6.1053392315289341e-07 -5.5531770804568152e-07 0.0000000000000000e+00  -2.4063554582699633e-06 -4.5075067163147707e-07 0.0000000000000000e+00  1.2561391206623687e-06 9.2244894283552688e-07 0.0000000000000000e+00  3.3828167598430420e-01 9.4673120791024232e-02 0.0000000000000000e+00  3.9514863998516633e-06 2.1197109068065259e-06 0.0000000000000000e+00  2.9437542533320764e-06 1.2346845497540130e-08 0.0000000000000000e+00  -1.6896872571648093e-06 -6.2456120910182005e-08 0.0000000000000000e+00  -3.9485911238296396e-07 -2.3150648102340130e-07 0.0000000000000000e+00  -8.0809761931971810e-08 -8.3757708878662048e-07 0.0000000000000000e+00  -8.9388237323996214e-07 -2.1323101231482976e-06 0.0000000000000000e+00  -2.9400219651913818e-06 -1.2981013376982863e-06 0.0000000000000000e+00  -4.0192175409611368e-06 -4.5385847592339942e-07 0.0000000000000000e+00  -4.1160950660146062e-06 -4.6407058304586715e-07 0.0000000000000000e+00  1.0636237482310129e-07 7.6231459937831293e-08 0.0000000000000000e+00  -3.4477006960474360e-06 6.0372396311594763e-07 0.0000000000000000e+00  1.6583343479748025e-01 -4.5546428918415610e-07 0.0000000000000000e+00  1.7103984297487461e-06 4.8597500136916474e-07 0.0000000000000000e+00  4.0431453962054455e-06 2.1399480141128357e-06 0.0000000000000000e+00  -3.6337289209916433e-07 1.0184001298671533e-07 0.0000000000000000e+00  5.1108346061455268e-07 7.3632917136282848e-08 0.0000000000000000e+00  6.2083583358835800e-07 -2.0158242136147730e-07 0.0000000000000000e+00  -8.0226717835381813e-07 8.2118201464742966e-08 0.0000000000000000e+00  -1.5683330158412857e-06 -1.2042974419904671e-07 0.0000000000000000e+00  -2.7658693532567058e-06 -5.3375655064110559e-07 0.0000000000000000e+00  -9.6079433916529873e-06 -5.5687905022595699e-07 0.0000000000000000e+00  -1.0164461912986969e-06 -4.2827535634590386e-09 0.0000000000000000e+00  -1.2901111580890318e-06 -6.1274986996784346e-09 0.0000000000000000e+00  -4.5222650731040560e-07 -1.5662103897597053e-08 0.0000000000000000e+00  -8.1925773360705541e-07 -4.3880897228269534e-08 0.0000000000000000e+00  -5.1890098246918900e-07 -2.7447386491620654e-10 0.0000000000000000e+00  -7.0120256548451925e-08 -2.8172776009018008e-10 0.0000000000000000e+00  2.1557318319615454e-01 1.8647596940805510e-03 0.0000000000000000e+00  2.1557418921854596e-01 1.8243830764300310e-04 0.0000000000000000e+00  2.3608655186174363e-01 -6.4154417014627305e-02 0.0000000000000000e+00  2.3523491586265313e-01 -1.3787522099668232e-02 0.0000000000000000e+00  2.1559670384562649e-01 -2.4708379081584388e-06 0.0000000000000000e+00  2.1545633004151088e-01 1.9668488647280298e-05 0.0000000000000000e+00  3.4563903812060407e-07 -3.8065347107871888e-08 0.0000000000000000e+00  1.6687523119963024e-07 5.4321769753178632e-10 0.0000000000000000e+00  -5.8872345921512979e-07 8.0953059213800818e-10 0.0000000000000000e+00  1.9013828834632487e-01 -5.3122472573675491e-06 0.0000000000000000e+00  -8.6009960288230040e-07 -1.5173388283051696e-09 0.0000000000000000e+00  2.1245840376815944e-01 1.9362830844803275e-03 0.0000000000000000e+00  -1.2449437338800696e-06 -1.5055462760397640e-08 0.0000000000000000e+00  -1.0562613394559900e-06 -1.5606243299851660e-09 0.0000000000000000e+00  -7.0787664951174949e-07 -1.4963545658789779e-08 0.0000000000000000e+00  -5.5694820099095581e-08 1.0218405351892293e-08 0.0000000000000000e+00  -4.7132389817071956e-07 -9.9779894060380462e-08 0.0000000000000000e+00  -8.0979966324394285e-07 -8.1100913114167450e-08 0.0000000000000000e+00  -4.6529346634038552e-07 -1.1718243308727365e-07 0.0000000000000000e+00  -2.3419784107897147e-06 -1.6696174989537905e-08 0.0000000000000000e+00  2.8433732882767479e-06 -5.5541024611109484e-07 0.0000000000000000e+00  -3.9549529773131935e-07 2.4253277748212136e-07 0.0000000000000000e+00  1.8334863149184719e-01 -9.2762464106373427e-02 0.0000000000000000e+00  -1.1646353684246814e-06 -1.9363491342390947e-07 0.0000000000000000e+00  2.1106022785250064e-01 5.7323160741451192e-04 0.0000000000000000e+00  2.8491310635042205e-01 -4.0714985932318794e-02 0.0000000000000000e+00  1.0385541618842993e-01 1.2896859929132541e-03 0.0000000000000000e+00  3.0807549679681695e-01 1.0999081944261427e-01 0.0000000000000000e+00  2.0528834291831549e-01 4.0450954070381115e-04 0.0000000000000000e+00  2.5755650659901663e-01 -3.7184412448667957e-02 0.0000000000000000e+00  2.0335623174495746e-01 5.6749565574573434e-03 0.0000000000000000e+00  5.7992862159116830e-02 6.5544941362717088e-02 0.0000000000000000e+00  2.0468109770500387e-01 4.5461863588389869e-05 0.0000000000000000e+00  2.0462533955580101e-01 1.0800878285495213e-05 0.0000000000000000e+00  1.9008220570558182e-01 4.2702495243702119e-05 0.0000000000000000e+00  7.5234907547078927e-02 4.1985947055768839e-09 0.0000000000000000e+00  2.7319256202910291e-01 1.7747463381978791e-08 0.0000000000000000e+00  2.1178329643728908e-01 2.4323311022699756e-06 0.0000000000000000e+00  2.3491461891188906e-01 7.2014919969165384e-02 0.0000000000000000e+00  1.7289158500193441e-01 9.0202024381004778e-06 0.0000000000000000e+00  1.8777211488659734e-01 2.0572017112623492e-03 0.0000000000000000e+00  1.9523350849620083e-01 9.0456078855298484e-04 0.0000000000000000e+00  2.2986704242574099e-01 -4.3030027937480446e-02 0.0000000000000000e+00  1.8601183685444816e-01 7.6911064331832690e-06 0.0000000000000000e+00  1.9029960731771819e-01 1.4982873150803390e-04 0.0000000000000000e+00  1.9004385787999403e-01 -6.5383740294790325e-03 0.0000000000000000e+00  3.9123819413920113e-01 -7.5085675368342333e-02 0.0000000000000000e+00  4.2329245994696681e-02 -2.9354648324488194e-02 0.0000000000000000e+00  1.9010086522042405e-01 2.1950056646402857e-06 0.0000000000000000e+00  1.8210165070997361e-01 1.0311353856458942e-02 0.0000000000000000e+00  1.9122524245996234e-01 9.8581262547556823e-04 0.0000000000000000e+00  1.6418780804832969e-01 1.4255128118006283e-03 0.0000000000000000e+00  1.3193813002844942e-01 -2.6379295842626677e-02 0.0000000000000000e+00  4.3443307665148495e-01 -4.0021176823194692e-02 0.0000000000000000e+00  2.3581222944505568e-06 -5.9733113532537675e-07 0.0000000000000000e+00  2.1520189713407439e-01 5.3728714413663005e-05 0.0000000000000000e+00  -1.0065480136934608e-06 2.3482811560470313e-07 0.0000000000000000e+00  1.9904486766938756e-01 1.5731486198002209e-04 0.0000000000000000e+00  3.3912349228146188e-01 -1.1410587362088805e-01 0.0000000000000000e+00  2.1492831743477889e-01 3.1522870003231787e-03 0.0000000000000000e+00  1.2568762977872150e-01 7.1567419525215614e-02 0.0000000000000000e+00  2.3130781103552717e-01 1.3784687500573581e-02 0.0000000000000000e+00  2.0870767339798524e-01 2.4716634515646759e-02 0.0000000000000000e+00  1.4771592738019379e-01 7.3662787656691625e-02 0.0000000000000000e+00  4.6415223318731613e-01 -1.0956508262044702e-02 0.0000000000000000e+00  5.2385032980224233e-02 2.3964567335939931e-02 0.0000000000000000e+00  -1.3030319648040159e-07 -1.8945621182370447e-07 0.0000000000000000e+00  1.5201585765266581e-01 -1.2006257425130561e-06 0.0000000000000000e+00  -1.7145430626744093e-06 -2.3763804606677680e-09 0.0000000000000000e+00  -1.2834898438867598e-06 5.8420213956507303e-09 0.0000000000000000e+00  -1.2289792593693803e-06 -8.9895720353462365e-08 0.0000000000000000e+00  2.1527574649239273e-01 1.0003213894663654e-03 0.0000000000000000e+00  -1.6725699376952565e-06 4.2236339282558009e-08 0.0000000000000000e+00  4.0339393711315491e-01 4.3362038537907634e-02 0.0000000000000000e+00  3.7674914464610409e-01 8.2076486759630751e-02 0.0000000000000000e+00  1.6082258565256261e-01 3.1011359413699389e-05 0.0000000000000000e+00  3.4342876140224088e-01 1.3458796060374967e-02 0.0000000000000000e+00  -1.0710267580507361e-06 -3.1817396050503646e-09 0.0000000000000000e+00  -1.5648192425803281e-07 -3.0884194537973133e-08 0.0000000000000000e+00  4.2707386557441472e-07 -4.5857482489706169e-08 0.0000000000000000e+00  1.6535345563502116e-01 -2.8000321187969984e-06 0.0000000000000000e+00  1.4406219903881468e-01 5.0677294432625681e-03 0.0000000000000000e+00  -3.0495020020447341e-07 -5.5287919158883061e-08 0.0000000000000000e+00  1.4400043355148803e-01 -2.1489370271557964e-02 0.0000000000000000e+00  1.6562734420573647e-01 1.5472346452574018e-01 0.0000000000000000e+00  3.9844576531110221e-01 -4.8091366262286640e-02 0.0000000000000000e+00  1.6487584933390951e-06 -1.8408505050785236e-07 0.0000000000000000e+00  9.2317394903320471e-02 5.1952911285154370e-02 0.0000000000000000e+00  2.1304033949345838e-01 2.3542404640227140e-03 0.0000000000000000e+00  1.6571810155779398e-01 1.4159250117834121e-03 0.0000000000000000e+00  1.6141794167034245e-07 4.1156254096614672e-08 0.0000000000000000e+00  6.4534694652869359e-02 -3.8519776152820900e-02 0.0000000000000000e+00  2.1422787482202468e-01 3.2472570317891841e-04 0.0000000000000000e+00  2.6660739069235545e-01 -6.1011031531735344e-02 0.0000000000000000e+00  2.1801084620892977e-01 -3.1250302618857340e-03 0.0000000000000000e+00  1.6149271905793977e-01 2.1380968422167790e-04 0.0000000000000000e+00  2.0188388877961652e-01 -3.4421112918297969e-02 0.0000000000000000e+00  2.3243695463949796e-01 2.6472996052104909e-02 0.0000000000000000e+00  3.0561144713978659e-02 2.4971566217558507e-02 0.0000000000000000e+00  1.8886758202321710e-01 -9.0253852355694955e-02 0.0000000000000000e+00  3.8472686281241786e-02 3.3179109797496907e-02 0.0000000000000000e+00  2.0920285034551603e-01 7.9219668755382989e-03 0.0000000000000000e+00  3.8817773202519390e-02 1.2980067364583854e-02 0.0000000000000000e+00  1.0293301626410992e-01 -2.2475410814606637e-02 0.0000000000000000e+00  -8.6700166282424354e-07 -1.2840367516743078e-07 0.0000000000000000e+00  -5.2877539969825006e-07 -8.7972476301482109e-09 0.0000000000000000e+00  -1.5034654740324072e-07 2.9130427980423034e-07 0.0000000000000000e+00  3.7888241747659529e-01 -1.0247003150371931e-01 0.0000000000000000e+00  7.8096249041854846e-02 3.1587508145564658e-02 0.0000000000000000e+00  -2.1488252759333367e-06 -1.1016699391830535e-07 0.0000000000000000e+00  -7.6356734303620759e-07 -7.1886239958485459e-09 0.0000000000000000e+00  1.5719204489439401e-01 3.0668047870831511e-04 0.0000000000000000e+00  2.0993982684991797e-01 1.0070205729961067e-04 0.0000000000000000e+00  -7.3571490961396366e-07 -4.6970050497334815e-10 0.0000000000000000e+00  -7.1456701039818731e-07 -2.7704719706219969e-08 0.0000000000000000e+00  -1.1087615310952910e-06 -3.1830006115305606e-08 0.0000000000000000e+00  -1.5982621324376178e-07 -7.1060652168244555e-11 0.0000000000000000e+00  -1.0832234791346839e-07 -2.0680449539420325e-10 0.0000000000000000e+00  4.1621138077751274e-07 -2.8209506602101972e-07 0.0000000000000000e+00  -1.9748433046332983e-06 -2.3101377684307112e-07 0.0000000000000000e+00  -3.1128187341959273e-06 6.5560971811155023e-07 0.0000000000000000e+00  1.0034526709695307e-06 3.5498006946727457e-07 0.0000000000000000e+00  2.6814805886118234e-07 -1.6460588111708095e-07 0.0000000000000000e+00  1.4914452550765744e-07 -2.0498956721184497e-09 0.0000000000000000e+00  -9.5605476771328197e-07 7.1582077049367052e-10 0.0000000000000000e+00  -3.2937644901419176e-07 -3.3760743737482663e-10 0.0000000000000000e+00  5.5108912282038442e-03 6.4146000041801939e-03 0.0000000000000000e+00  1.3351082819745003e-01 3.3961940878581482e-03 0.0000000000000000e+00  1.1621901475432928e-01 -1.8466621512161243e-03 0.0000000000000000e+00  1.4926952521364439e-01 1.3795448929135169e-04 0.0000000000000000e+00  2.9332357012673327e-01 7.7297217610981961e-02 0.0000000000000000e+00  3.3493795931158582e-01 5.4896860262614082e-02 0.0000000000000000e+00  3.1535641496141481e-01 2.6457536053122295e-02 0.0000000000000000e+00  1.5698357574619540e-01 1.1497996418594511e-05 0.0000000000000000e+00  2.1545716908710441e-01 5.5619822103793951e-04 0.0000000000000000e+00  2.2028977959097482e-01 3.9805066111875025e-03 0.0000000000000000e+00  1.3198271343958867e-01 1.6608260271242562e-03 0.0000000000000000e+00  2.1535298461511643e-01 1.9795533035906053e-06 0.0000000000000000e+00  2.1553834978431269e-01 5.6215534929137723e-06 0.0000000000000000e+00  2.1093785877522730e-01 8.6613220834339089e-06 0.0000000000000000e+00  2.1433550084018568e-01 2.6878408623706478e-05 0.0000000000000000e+00  1.4109922738614053e-01 7.6292862223775719e-06 0.0000000000000000e+00  1.4940228644067252e-01 1.2650990472200276e-05 0.0000000000000000e+00  2.0815012969981769e-01 1.9773454650266370e-01 0.0000000000000000e+00  4.3712487497668151e-02 6.7793100968258205e-02 0.0000000000000000e+00  1.2190211245155602e-01 5.5995914297107150e-03 0.0000000000000000e+00  2.1851249474598750e-01 -5.0194383018846277e-03 0.0000000000000000e+00  1.8439663145690394e-01 5.1938311424007378e-04 0.0000000000000000e+00  2.1410696452273162e-01 3.0122427138540617e-04 0.0000000000000000e+00  2.1733537798581520e-01 3.0833182026003421e-03 0.0000000000000000e+00  2.0949525727950868e-01 1.1221346692590946e-05 0.0000000000000000e+00  1.4969567541945666e-01 7.8507515293337320e-04 0.0000000000000000e+00  2.1389009690816116e-01 1.2611543891154855e-03 0.0000000000000000e+00  2.4364838765492788e-01 -1.0439765806427843e-02 0.0000000000000000e+00  1.4488917803571047e-01 3.5023897277332933e-05 0.0000000000000000e+00  2.1120062028734052e-01 1.1469537448011648e-04 0.0000000000000000e+00  1.4224193178342939e-01 9.9006502577969947e-06 0.0000000000000000e+00  1.5395119755485215e-01 8.3258051084531451e-02 0.0000000000000000e+00  2.4992381445940118e-01 1.3431976887728339e-01 0.0000000000000000e+00  2.1449922542447097e-01 3.1887212528652356e-02 0.0000000000000000e+00  1.0265765133102407e-01 5.4681346822458964e-03 0.0000000000000000e+00  3.0528985916078205e-01 -9.3144092320168986e-02 0.0000000000000000e+00  1.9446173427525842e-01 9.2825382504488022e-03 0.0000000000000000e+00  3.9200395456791826e-01 1.8387595404049117e-02 0.0000000000000000e+00  2.1186727335738426e-01 2.3552517640790093e-03 0.0000000000000000e+00  2.0186259771341625e-01 3.5886581629365594e-03 0.0000000000000000e+00  3.4927151849055449e-01 1.9153371763720908e-01 0.0000000000000000e+00  2.7380320697709526e-01 3.6290666964391191e-02 0.0000000000000000e+00  2.3201782659650116e-01 7.1390558254894029e-02 0.0000000000000000e+00  2.1554692749823190e-01 1.0231850124226771e-04 0.0000000000000000e+00  2.0051436061926781e-01 -1.2000854685050178e-05 0.0000000000000000e+00  2.1177373444622946e-01 2.0100117782780224e-06 0.0000000000000000e+00  3.4222096166404714e-01 -6.1133706967735769e-02 0.0000000000000000e+00  1.2560729326695241e-01 2.4981108955736582e-02 0.0000000000000000e+00  1.3197945278961501e-01 3.5931310304762869e-04 0.0000000000000000e+00  2.0764403673875056e-01 2.0917182793165429e-02 0.0000000000000000e+00  1.5372826643546678e-01 4.7337424693846046e-02 0.0000000000000000e+00  2.1017616784205556e-01 1.7101412238714410e-03 0.0000000000000000e+00  1.4410931874797428e-01 7.7051032063415916e-04 0.0000000000000000e+00  1.6301682025498840e-01 -1.4587952278199890e-02 0.0000000000000000e+00  4.7100699883655767e-01 4.7879607758154745e-02 0.0000000000000000e+00  1.7804948452973707e-01 -6.2424686216307916e-02 0.0000000000000000e+00  2.9174018933441542e-01 -5.5329600266406653e-02 0.0000000000000000e+00  2.0366232629500355e-01 1.2930546987503150e-05 0.0000000000000000e+00  1.9578699914690947e-01 -2.1544140381358805e-02 0.0000000000000000e+00  2.0311242904542551e-01 6.3530382746358586e-04 0.0000000000000000e+00  2.1278479120539545e-01 1.3754086625996208e-03 0.0000000000000000e+00  2.0388750657865670e-01 -6.6672143319017666e-04 0.0000000000000000e+00  -3.2980615407580505e-04 -6.4172531395280648e-03 0.0000000000000000e+00  1.1346906103364460e-01 4.8764465593557302e-05 0.0000000000000000e+00  1.1773557049095272e-01 -1.5769326122827847e-03 0.0000000000000000e+00  1.0428046654633538e-01 -3.1032220125867094e-02 0.0000000000000000e+00  6.3173116045633942e-02 1.7685544439350144e-02 0.0000000000000000e+00  1.9994214810890396e-01 1.6671637659186304e-05 0.0000000000000000e+00  1.2137882663556822e-01 2.6847379002458654e-06 0.0000000000000000e+00  4.0599781146462144e-01 -4.0501517209733148e-02 0.0000000000000000e+00  2.1170748171060452e-01 1.8350688503817759e-04 0.0000000000000000e+00  2.0479032919470394e-01 2.5756779168829092e-05 0.0000000000000000e+00  3.5785429771864816e-02 5.2156105003758256e-08 0.0000000000000000e+00  1.0140711272441501e-01 -6.9965169041131481e-02 0.0000000000000000e+00  1.5900197259741167e-01 4.2355715999606011e-02 0.0000000000000000e+00  2.1350839408439207e-01 3.3682849241324568e-05 0.0000000000000000e+00  2.0285088382934524e-01 3.1974872471920448e-04 0.0000000000000000e+00  8.7917647635016125e-02 -7.9952489853011618e-03 0.0000000000000000e+00  2.1171200465929552e-01 -3.2328294979227720e-02 0.0000000000000000e+00  3.8074889526326050e-01 3.5769430293893643e-02 0.0000000000000000e+00  1.3152894058868195e-01 3.5905139611083509e-04 0.0000000000000000e+00  1.1186757887927848e-01 4.4593036955010590e-05 0.0000000000000000e+00  1.2431332713949612e-01 -4.9744145192669348e-06 0.0000000000000000e+00  -2.6580716504073067e-03 2.8217350423594214e-02 0.0000000000000000e+00  3.3356381842195171e-01 3.7277152264717204e-08 0.0000000000000000e+00  1.1727264726919394e-01 7.8641137803563610e-04 0.0000000000000000e+00  3.9452980020372558e-01 5.9372730567164664e-03 0.0000000000000000e+00  1.2854623572002383e-01 1.3670176801815047e-06 0.0000000000000000e+00  2.0128268268404434e-01 -7.6182643950749112e-04 0.0000000000000000e+00  1.1852651788080083e-01 -6.5345910910939981e-08 0.0000000000000000e+00  2.1179056055266521e-01 8.4728334736368174e-06 0.0000000000000000e+00  1.2432454118739711e-01 1.1296043706060716e-05 0.0000000000000000e+00  2.1733316337758293e-01 -3.4958313455206919e-08 0.0000000000000000e+00  1.2432739850038450e-01 1.0050200521010146e-05 0.0000000000000000e+00  2.0054014408244547e-01 1.5224596555488015e-03 0.0000000000000000e+00  2.1414440488234951e-01 4.2329807198745946e-06 0.0000000000000000e+00  1.2577853382909132e-01 3.3808924197110718e-04 0.0000000000000000e+00  9.9376338806268699e-02 6.4714406471543873e-04 0.0000000000000000e+00  1.9730390126419603e-01 2.1158770431920020e-03 0.0000000000000000e+00  6.3772619943799458e-02 -1.1448563271708836e-02 0.0000000000000000e+00  3.1810834341159921e-01 -1.7438096533919579e-02 0.0000000000000000e+00  2.8535528152177458e-01 -2.1290043702081447e-02 0.0000000000000000e+00  4.1870231840491340e-01 -5.3540857981247247e-02 0.0000000000000000e+00  1.1379857102982631e-01 1.6661063759783944e-04 0.0000000000000000e+00  3.4374097644096985e-01 -8.0589034586618397e-02 0.0000000000000000e+00  2.5938541857076652e-01 -2.6910336697883157e-02 0.0000000000000000e+00  1.9565459852421860e-01 1.4864858620058115e-05 0.0000000000000000e+00  2.1671852411234271e-01 -1.5523259632659839e-02 0.0000000000000000e+00  9.5502931740266764e-02 7.5921192155595886e-06 0.0000000000000000e+00  1.1994505376415061e-01 -1.2980886788834672e-02 0.0000000000000000e+00  2.2328637990368330e-01 4.50727013657