<?xml version="1.0"?>
<VTKFile type="UnstructuredGrid"  version="0.1"  >
<UnstructuredGrid>
<Piece  NumberOfPoints="1404" NumberOfCells="2604">
<Points>
<DataArray  type="Float64"  NumberOfComponents="3"  format="ascii">0 0.41 0  0 0 0  2.2 0 0  2.2 0.41 0  0.2353553390593274 0.2353553390593274 0  0.25 0.2 0  0.2353553390593274 0.1646446609406726 0  0.2 0.15 0  0.1646446609406726 0.1646446609406726 0  0.15 0.2 0  0.1646446609406726 0.2353553390593274 0  0.2 0.25 0  0.6923879532511287 0.188268343236509 0  0.7 0.15 0  0.6923879532511287 0.1117316567634909 0  0.6707106781186547 0.07928932188134523 0  0.6382683432365089 0.05761204674887133 0  0.6 0.04999999999999999 0  0.5617316567634909 0.05761204674887134 0  0.5292893218813453 0.07928932188134524 0  0.5076120467488713 0.111731656763491 0  0.5 0.15 0  0.5076120467488713 0.188268343236509 0  0.5292893218813453 0.2207106781186547 0  0.561731656763491 0.2423879532511287 0  0.6 0.25 0  0.6382683432365089 0.2423879532511287 0  0.6707106781186547 0.2207106781186547 0  1.1 0 0  0 0.205 0  1.1 0.41 0  0.55 0 0  0.55 0.41 0  0.275 0 0  0.8250000000000001 0 0  0.275 0.41 0  0.8250000000000001 0.41 0  0.6875 0 0  0.61875 0 0  1.65 0.41 0  1.65 0 0  1.375 0 0  1.375 0.41 0  1.925 0 0  1.925 0.41 0  1.5125 0.205 0  1.7875 0.205 0  0.9625000000000001 0.205 0  1.2375 0.205 0  2.2 0.205 0  1.99375 0.2152743902439024 0  0.4125 0.41 0  2.0625 0 0  2.0625 0.41 0  2.2 0.3075 0  1.7875 0.41 0  1.375 0.1486128048780488 0  1.5125 0 0  1.7875 0 0  1.5125 0.41 0  0.9625000000000001 0.41 0  0.4125 0 0  0.1375 0 0  0.1375 0.41 0  0.6875 0.41 0  0.9625000000000001 0 0  1.2375 0 0  1.1 0.1486128048780488 0  1.2375 0.41 0  1.65 0.1486128048780487 0  0.823495464168302 0.2603780552348366 0  0.3738707794507017 0.2720196349488618 0  0.3662291281331582 0.1311456406657909 0  1.676715909090909 0.2793064024390244 0  1.126715909090909 0.2793064024390244 0  1.348284090909091 0.2793064024390244 0  0.8287581077665108 0.1302150898054257 0  1.894702181800738 0.1282910975492754 0  2.092797818199262 0.1282910975492754 0  1.85625 0.3075 0  0 0.3075 0  0 0.1025 0  2.099172119769978 0.25625 0  0.4752414543992246 0.3180372603390748 0  1.99375 0.08395950269330846 0  1.459960956013612 0.3075 0  1.569025960719943 0.2986889805672169 0  1.03125 0.3278689922742084 0  1.959375 0.3126371951219512 0  1.749222215368287 0.1025 0  1.275777784631713 0.1025 0  0.9228016959331474 0.3075 0  1.000777784631713 0.1025 0  2.2 0.1025 0  1.225938124459196 0.3075 0  1.550777784631713 0.1025 0  1.44375 0.07430640243902442 0  1.16875 0.07430640243902439 0  0.7562500000000001 0.3358727844323386 0  0.89375 0 0  1.899250267340833 0.2229966846119207 0  0.61875 0.41 0  1.766482954545455 0.2934032012195123 0  1.046078563095834 0.2389031808701145 0  1.421109702350723 0.2261157654379721 0  0.07567171807980319 0.25625 0  0.2511897295290552 0.3235829392832554 0  0.07655002503762308 0.1488653460959645 0  0.1377245246847496 0.3206030474919778 0  0.6694099692696568 0.3242771941727899 0  0.9168971191497528 0.1295727156104653 0  0.7562500000000001 0 0  2.118919042110979 0.3422084711244843 0  2.13125 0 0  0.06875000000000001 0 0  1.30625 0.41 0  1.597888256393107 0.2173787389261347 0  0.34375 0.41 0  0.2493272016354703 0.08091360081773515 0  0.5588896233436766 0.3264056208677571 0  1.829299675393195 0.07400700849299596 0  0.1334079128307869 0.08523463035786674 0  1.71875 0.41 0  0.06875000000000001 0.41 0  1.16875 0.41 0  2.038220665644273 0.332420740103091 0  0.8810647413215221 0.2027360103977071 0  0.34375 0 0  0.7453891198966415 0.2471459041008237 0  0.42112093004955 0.1988123139090554 0  0.8314023090855964 0.3351170841770613 0  0.89375 0.41 0  0.7906250000000001 0.06615386481594063 0  1.452769549894695 0.1548122580621249 0  1.369219062229598 0.07430640243902442 0  1.30625 0 0  1.07420695807087 0.07430640243902439 0  1.720943423819132 0.1714577452753128 0  1.157188124459196 0.205 0  1.304056576180868 0.1714577452753128 0  1.67579304192913 0.07430640243902437 0  1.209670467133757 0.136210026696477 0  0.4312800784902823 0.08036147352247747 0  0.8723959680194693 0.07066860609690805 0  1.025335513626278 0.1700681449722324 0  0.7945632284247136 0.1940204203251442 0  0.378125 0.3452261501101892 0  0.3307109909790086 0.2037165635083759 0  0.3009701032039409 0.2702970083403109 0  0.20625 0.41 0  1.58125 0 0  0.4812500000000001 0 0  0.9838963872396855 0.2722244191167347 0  0.06772484939107212 0.3260067317374387 0  0.20625 0 0  1.58125 0.41 0  1.631724228912893 0.3381867502687533 0  1.825608881788174 0.14499488549201 0  1.85625 0 0  1.44375 0 0  1.44375 0.41 0  1.85625 0.41 0  2.13125 0.41 0  0.7562500000000001 0.41 0  0.4812500000000001 0.41 0  1.16875 0 0  1.03125 0.41 0  1.03125 0 0  1.71875 0 0  1.99375 0 0  1.99375 0.41 0  0.9408708167433545 0.0651989315768642 0  1.340625 0.3489494290853124 0  1.134375 0.3489494290853123 0  1.700180620188976 0.3438659752031281 0  0.29668452290037 0.1318471691375986 0  0.3175441051360096 0.06496934809856265 0  0.06509151636162461 0.08140814015999148 0  2.135782184673599 0.07126652247502523 0  1.668441847249787 0.2129203728327609 0  1.295782514339747 0.2378437748815763 0  1.409375 0.3520314716057996 0  2.129248544730567 0.1906135162504124 0  2.060771381434487 0.1989445750470348 0  2.013252586573865 0.1496169464686054 0  1.942766402200229 0.1734448904596831 0  1.895522487186454 0.06076163953489683 0  2.069553871656643 0.06605731020975725 0  0.4670911801404742 0.2498408582391372 0  0.7622743084658112 0.1264100838268133 0  1.274680914880868 0.3520219391081363 0  0.3148669572599245 0.3331753056385887 0  1.614713220494657 0.09473434380863296 0  1.72990325744076 0.2380068107952482 0  1.356580098625191 0.2120393231351682 0  2.034370752044885 0.2668681600792073 0  1.51768709249349 0.3426260931494756 0  1.561883724969884 0.1650446847858835 0  1.197344062229598 0.2523725417393646 0  1.804085235518364 0.3468178408964637 0  1.817887819205233 0.2589243285818559 0  1.905897727272727 0.3485060975609756 0  0.7296439733931823 0.06337466644369745 0  0.4250935971865949 0.1394919578475796 0  0.3773030136511669 0.05130372097998036 0  1.192836486056382 0.3562350748565544 0  1.1029124365364 0.226143510831178 0  1.28257088594801 0.2944411014911587 0  0.1905185804731426 0.06029880676029167 0  1.474860187679412 0.2504218616229368 0  1.406767003493824 0.2829282258560709 0  0.5209826960981064 0.2830664557824064 0  0.5131119502780163 0.3617405848213254 0  0.1948220106098172 0.3081993407644811 0  1.845656689180403 0.1998310418452388 0  2.144958525570388 0.2909790873294231 0  2.2 0.15375 0  0.8833025251326762 0.2625402923007629 0  0.171875 0.3653875762360952 0  1.57794966442982 0.3540357145964566 0  0.446875 0.366068291212731 0  0.4272051715206439 0.2891929346190664 0  1.508991196088596 0.1421783375065625 0  1.50436820029908 0.06143401634903343 0  1.223857000523521 0.08235548624535324 0  0.6137904613287555 0.3066826366281556 0  1.153316824384777 0.1289850171317838 0  0.9751573703656133 0.327632618473408 0  2.148922302309752 0.1258841779285271 0  0.9281250000000001 0.3643758685795699 0  1.621993280276081 0.2841214267927899 0  1.550118654119087 0.2461998729100966 0  1.327182649291491 0.1216967252533594 0  0.9939955742738924 0.04663549843168518 0  1.753125 0.04556020050186112 0  1.271875 0.04556020050186116 0  0.9734326767716519 0.1506854560854393 0  0.103125 0.3675775577080512 0  1.94956388244759 0.1180512551534177 0  1.949997712993411 0.04965831614304109 0  0.717433898748555 0.295596016333797 0  1.771961817615021 0.1530278789497521 0  1.909246823951428 0.2812757146784527 0  0 0.35875 0  1.050632804931928 0.1226269704412814 0  0.05695108326502596 0.2024009637347154 0  1.948575539857022 0.2445328248721197 0  1.697271520964565 0.1233917627620729 0  1.065625 0.3689344961371042 0  1.085849084308977 0.3170853572226867 0  0.1015495998772944 0.04226029099983852 0  1.577403511714593 0.05463601888079143 0  1.751571320346033 0.3651102912045228 0  2.2 0.35875 0  0.7441773632462837 0.1786786606458751 0  0 0.05125 0  1.466879772203159 0.3611261772912453 0  0.6282230348858767 0.3577675483994025 0  1.990280163552011 0.3564754268533217 0  1.17471064520912 0.2990917256188288 0  0 0.25625 0  2.2 0.25625 0  2.2 0.05125 0  0 0.15375 0  1.853978576207987 0.35875 0  1.515638456102889 0.2882700110184686 0  2.150453692751374 0.2387066338105111 0  1.323782677156475 0.04897634338873398 0  1.409375 0.03715320121951221 0  1.406484531114799 0.1087852750766809 0  1.134375 0.03715320121951219 0  0.721875 0.3729363922161693 0  0.7941695928236929 0.3696489254637395 0  0.7934827162619036 0.3013409431456604 0  1.627401732573545 0.04552157221025036 0  0.9352049974617431 0.2507047965699472 0  0.8763260682738339 0.3611103317460093 0  2.045405893604797 0.1105340662939892 0  1.255408269734577 0.1577307500159216 0  2.028125 0.03707597992059326 0  1.003030137506755 0.3689344961371042 0  1.248258025468107 0.2565907092181813 0  1.203125 0.03661323374043041 0  0.4800125512335631 0.0549472816999725 0  2.072662025974815 0.2975086504196739 0  0.240625 0.3729825336867542 0  1.113252391110535 0.10238286244357 0  1.071052763974265 0.1885202618768825 0  0.8738809401657862 0.3106483608284829 0  0.6786819423003397 0.2677558482644021 0  1.887722846421017 0.1760882698830035 0  1.472640588990488 0.1118278026240017 0  0.5843750000000001 0.41 0  1.865937103925594 0.2604137786483804 0  1.463913572748262 0.2030442564990043 0  1.376426316059077 0.3186741374914345 0  0.1038643885363755 0.2162701735320032 0  0.1769473813227781 0.1070849728467114 0  0.458787839809176 0.171541653775316 0  0.240625 0 0  0.04179569703428024 0.2877217852556549 0  0.1258346557601885 0.2699740073054968 0  1.722140693354707 0.282908100935778 0  0.41206179117512 0.2448172567039922 0  0.3702471778075604 0.2265217604228704 0  0.3714881805374215 0.1786967818665642 0  1.77397096061971 0.2481483237422926 0  2.105123889160691 0.03743885948498647 0  1.001138337938679 0.229719337663998 0  1.051242910646791 0.2854826559431138 0  1.395420985247586 0.18
[...]
<PointData  Vectors="f_37"> 
<DataArray  type="Float64"  Name="f_37"  NumberOfComponents="3" format="ascii">2.5403486180112769e-07 5.2139521137478469e-08 0.0000000000000000e+00  -4.4471955182102857e-06 -3.5986537250182308e-07 0.0000000000000000e+00  -6.7023373315664024e-07 4.1864882335675162e-10 0.0000000000000000e+00  -8.9428806537608503e-07 1.8299199226239856e-11 0.0000000000000000e+00  -8.1891565166954628e-08 2.1752205324185158e-07 0.0000000000000000e+00  2.0098172365525481e-07 -3.0565498883107848e-07 0.0000000000000000e+00  2.2896880647426468e-07 6.1787030979852517e-08 0.0000000000000000e+00  -8.5021659001416140e-07 -2.0334211030286078e-07 0.0000000000000000e+00  -9.3175455493062591e-07 -1.8886076039561387e-07 0.0000000000000000e+00  1.5275692499268684e-07 -4.7935918790929579e-07 0.0000000000000000e+00  -1.0111600672973457e-06 -5.9391257722176321e-07 0.0000000000000000e+00  -1.2366096364602044e-06 -2.5751450325971773e-07 0.0000000000000000e+00  5.3602336482280969e-07 4.2071948504473838e-07 0.0000000000000000e+00  -5.1300322312825566e-07 -6.6015629357218855e-07 0.0000000000000000e+00  -5.1551049535386362e-07 -3.7130435795206712e-07 0.0000000000000000e+00  -2.1421253980570382e-06 -5.1180893628784682e-07 0.0000000000000000e+00  1.3640979058542360e-06 7.4223100164215905e-07 0.0000000000000000e+00  3.4178100674960082e-01 9.5468205848850102e-02 0.0000000000000000e+00  3.2708634999374373e-06 1.5901482523497085e-06 0.0000000000000000e+00  1.8206214299419075e-06 1.1396969354242151e-07 0.0000000000000000e+00  -1.5703298873788146e-06 8.0946147263893333e-08 0.0000000000000000e+00  -3.5789864953692388e-07 -4.7790219930434534e-07 0.0000000000000000e+00  -3.6972990728126126e-07 -9.2407469403955387e-07 0.0000000000000000e+00  -1.3216505605736882e-06 -1.8737959717699854e-06 0.0000000000000000e+00  -3.0901216657558261e-06 -9.3438243342294676e-07 0.0000000000000000e+00  -3.9219473081978099e-06 -2.1608734109755788e-07 0.0000000000000000e+00  -4.0915992040361878e-06 -3.6990076805406577e-07 0.0000000000000000e+00  -1.0695249555192773e-07 1.2631913299268504e-07 0.0000000000000000e+00  -2.3543990558003300e-06 4.0405881937208859e-07 0.0000000000000000e+00  1.6583343762402084e-01 -4.7228517103775290e-07 0.0000000000000000e+00  1.4906668940664719e-06 5.5214569635922374e-07 0.0000000000000000e+00  3.6530688077830136e-06 1.6480640156785830e-06 0.0000000000000000e+00  -3.4463760075676901e-07 1.5612843031060220e-08 0.0000000000000000e+00  5.0406339156017724e-07 6.5657769590669453e-08 0.0000000000000000e+00  2.2177885090051254e-07 -1.1541930588211466e-07 0.0000000000000000e+00  -8.7491218293757433e-07 3.3813251227985016e-08 0.0000000000000000e+00  -1.6074020203892510e-06 -1.2213161411100909e-07 0.0000000000000000e+00  -2.7564734349212239e-06 -5.3221769517068231e-07 0.0000000000000000e+00  -9.6151888116985100e-06 -7.1361262671407280e-07 0.0000000000000000e+00  -1.0032981218576667e-06 -5.7420867239172745e-09 0.0000000000000000e+00  -1.2592020430403728e-06 -8.0811625195103652e-09 0.0000000000000000e+00  -4.5180477711588271e-07 -5.7067306555490688e-09 0.0000000000000000e+00  -1.0081501790637678e-06 -6.9721103064655371e-08 0.0000000000000000e+00  -5.0711972157357318e-07 -3.6438061213152131e-10 0.0000000000000000e+00  -6.6726605335285984e-08 -2.1586763424625892e-10 0.0000000000000000e+00  2.1727781368579166e-01 2.7253398062591682e-03 0.0000000000000000e+00  2.1727761414356220e-01 2.3795006287693796e-04 0.0000000000000000e+00  2.2441675217055085e-01 -4.5320064446461653e-02 0.0000000000000000e+00  2.4735797476128260e-01 -2.2111835644722251e-02 0.0000000000000000e+00  2.1730017786846087e-01 -2.6599428364052317e-06 0.0000000000000000e+00  2.1713605523349280e-01 2.0220602973837476e-05 0.0000000000000000e+00  3.4009216501375019e-07 -1.0085738387475372e-08 0.0000000000000000e+00  1.7334982866820678e-07 4.6596939580473681e-10 0.0000000000000000e+00  -5.7648401961578211e-07 6.9971871698809604e-10 0.0000000000000000e+00  1.8952612530625890e-01 -6.9157849213518132e-06 0.0000000000000000e+00  -8.4247919193918927e-07 -1.8474667654741922e-09 0.0000000000000000e+00  2.1464871348811015e-01 2.3166426069181154e-03 0.0000000000000000e+00  -1.1879050366605527e-06 -2.0201310113319707e-08 0.0000000000000000e+00  -1.0384705359055564e-06 -1.7768849280701537e-09 0.0000000000000000e+00  -7.3668779649840166e-07 -2.0525805800410009e-08 0.0000000000000000e+00  -3.1574862321153720e-07 -4.7431776289759892e-08 0.0000000000000000e+00  -4.7578552928700788e-07 -8.5795485140413665e-08 0.0000000000000000e+00  -7.8995023687716176e-07 -7.5434582872570163e-08 0.0000000000000000e+00  -4.6437845889308676e-07 -9.7768758382995518e-08 0.0000000000000000e+00  -2.3121779857809743e-06 5.9045970827769143e-08 0.0000000000000000e+00  3.0366791389420768e-06 -6.8401240401702444e-07 0.0000000000000000e+00  -1.0799046385977716e-06 3.3995665845410303e-07 0.0000000000000000e+00  1.7877011465225612e-01 -9.5141340315052253e-02 0.0000000000000000e+00  -4.7049403558335720e-07 -1.4589383763878507e-07 0.0000000000000000e+00  2.1212885454151220e-01 7.9646914090918813e-04 0.0000000000000000e+00  2.7608921724247010e-01 -3.7375903232086137e-02 0.0000000000000000e+00  1.0617729565803474e-01 2.0753068556881721e-03 0.0000000000000000e+00  3.0670948640921292e-01 1.0855057596147097e-01 0.0000000000000000e+00  2.0558124609904910e-01 5.4628893438067691e-04 0.0000000000000000e+00  2.7094122612171417e-01 -5.2854029857026939e-02 0.0000000000000000e+00  2.0227190316092880e-01 8.7406204370632269e-03 0.0000000000000000e+00  6.2655853693951116e-02 6.4685216577799992e-02 0.0000000000000000e+00  2.0500567368467271e-01 5.3296490216720657e-05 0.0000000000000000e+00  2.0494610585609013e-01 9.7948514644866079e-06 0.0000000000000000e+00  1.8945871639955178e-01 5.1794311530912692e-05 0.0000000000000000e+00  7.5234909118364834e-02 1.7910429072706483e-08 0.0000000000000000e+00  2.7319256200672154e-01 -3.1193567025660735e-09 0.0000000000000000e+00  2.1286747732625250e-01 1.9443297886444178e-06 0.0000000000000000e+00  2.3601335307337842e-01 7.1470319110666869e-02 0.0000000000000000e+00  1.7166811925494668e-01 7.7973122054649364e-06 0.0000000000000000e+00  1.8608328980459055e-01 2.9943477418304049e-03 0.0000000000000000e+00  1.9456917322109255e-01 1.2628084330482629e-03 0.0000000000000000e+00  2.4539608292577608e-01 -4.6981177617770105e-02 0.0000000000000000e+00  1.8521589733600999e-01 7.3795529957701540e-06 0.0000000000000000e+00  1.8972938446155260e-01 1.9639912073595808e-04 0.0000000000000000e+00  1.8851377919833651e-01 -1.1627475508280966e-02 0.0000000000000000e+00  3.9645334636687152e-01 -6.8634668256258774e-02 0.0000000000000000e+00  3.5258834239170617e-02 -1.5963301466848424e-02 0.0000000000000000e+00  1.8948206597429765e-01 2.7694482235679252e-06 0.0000000000000000e+00  1.7813472871288785e-01 8.5083208106015683e-03 0.0000000000000000e+00  1.9107309161890115e-01 1.3826147964107398e-03 0.0000000000000000e+00  1.6395501179771765e-01 1.9212010853187779e-03 0.0000000000000000e+00  1.1729129487833574e-01 -3.3593289378444198e-02 0.0000000000000000e+00  4.3325934312848718e-01 -3.7361044332778544e-02 0.0000000000000000e+00  1.7937007193686375e-06 -4.6928910789722990e-07 0.0000000000000000e+00  2.1682867829600447e-01 6.4827281237800905e-05 0.0000000000000000e+00  -8.9531509813685104e-07 2.1115316459759797e-07 0.0000000000000000e+00  1.9891103055989087e-01 2.0009604589637630e-04 0.0000000000000000e+00  3.4591961778822855e-01 -1.1378041087216985e-01 0.0000000000000000e+00  2.1652712471019728e-01 4.7780058989084521e-03 0.0000000000000000e+00  1.2573521023569498e-01 7.1618251393919127e-02 0.0000000000000000e+00  2.3146505053059210e-01 1.3756351987202481e-02 0.0000000000000000e+00  2.0869649572743648e-01 2.4769134038556809e-02 0.0000000000000000e+00  1.4777172167382188e-01 7.3959506939730940e-02 0.0000000000000000e+00  4.6262382986318135e-01 -1.0415189869712524e-02 0.0000000000000000e+00  5.6170208840674071e-02 3.1995397625931697e-02 0.0000000000000000e+00  -2.0920849300118346e-07 -1.5170943805885129e-07 0.0000000000000000e+00  1.5045849552487439e-01 -2.4389507268096547e-06 0.0000000000000000e+00  -1.6904729483983921e-06 -2.0455134241063180e-09 0.0000000000000000e+00  -1.2637788081548220e-06 5.0882306034965095e-09 0.0000000000000000e+00  -1.2850980239325578e-06 -1.5468824108243096e-07 0.0000000000000000e+00  2.1688510412113726e-01 1.4180550831623770e-03 0.0000000000000000e+00  -1.6833042663358211e-06 4.1312984262082981e-08 0.0000000000000000e+00  4.0325127228091312e-01 4.3110121631975598e-02 0.0000000000000000e+00  3.7501095150206148e-01 8.0361077209364626e-02 0.0000000000000000e+00  1.5937155891200724e-01 4.0909400618215011e-05 0.0000000000000000e+00  3.4338692901467205e-01 1.3497030178995855e-02 0.0000000000000000e+00  -1.0525235771256615e-06 -3.9952042526689530e-09 0.0000000000000000e+00  -1.3175801305420495e-07 -1.6325150592472723e-08 0.0000000000000000e+00  1.4176692552018375e-06 1.6806082301927757e-07 0.0000000000000000e+00  1.6397510857214243e-01 -2.9571838834720937e-06 0.0000000000000000e+00  1.3493839592317189e-01 1.1210350669412509e-02 0.0000000000000000e+00  -2.9732399955385729e-07 -6.1078637321511546e-08 0.0000000000000000e+00  1.4164906389279894e-01 -2.1983036764236390e-02 0.0000000000000000e+00  1.6233029911809321e-01 1.5188881670270579e-01 0.0000000000000000e+00  4.0039690510473747e-01 -4.3881633253506552e-02 0.0000000000000000e+00  1.5914104438530564e-06 -2.2199190961324464e-07 0.0000000000000000e+00  9.6077352790807036e-02 5.1781341968795108e-02 0.0000000000000000e+00  2.1476197770474154e-01 3.3665357815900209e-03 0.0000000000000000e+00  1.6591645567062951e-01 1.5286954303677049e-03 0.0000000000000000e+00  -1.1291469788430429e-07 8.7688899828477807e-08 0.0000000000000000e+00  4.5371566038501038e-02 -3.5699522375990805e-02 0.0000000000000000e+00  2.1570500516066282e-01 4.3905104667923045e-04 0.0000000000000000e+00  2.8096142194943424e-01 -7.8758059692519131e-02 0.0000000000000000e+00  2.2296058851703693e-01 -5.9599933944494386e-03 0.0000000000000000e+00  1.6015407370609183e-01 2.8623649816202535e-04 0.0000000000000000e+00  2.0168186088662207e-01 -4.7732375024101548e-02 0.0000000000000000e+00  2.3436949461890763e-01 2.5873256218738021e-02 0.0000000000000000e+00  3.3488474692037938e-02 2.5922309871262796e-02 0.0000000000000000e+00  1.8276843164692561e-01 -7.3511189595271698e-02 0.0000000000000000e+00  3.5800998676140082e-02 2.9250884693899158e-02 0.0000000000000000e+00  2.0950355127160034e-01 7.7447647538336859e-03 0.0000000000000000e+00  3.7493692383618521e-02 1.4014554313556263e-02 0.0000000000000000e+00  1.0354807042984218e-01 -2.1757879460309482e-02 0.0000000000000000e+00  -9.2725411235738404e-07 -1.4418066985685589e-07 0.0000000000000000e+00  -5.0088329447006094e-07 -1.1417782936107984e-08 0.0000000000000000e+00  -3.2558138989904817e-07 3.2755988246739500e-07 0.0000000000000000e+00  3.8267757333006297e-01 -9.5439403698559216e-02 0.0000000000000000e+00  7.8100287492628762e-02 3.1559655944850440e-02 0.0000000000000000e+00  -2.1449289562886057e-06 -1.0725698130207503e-07 0.0000000000000000e+00  -7.6731298461276378e-07 -9.8028579224424568e-09 0.0000000000000000e+00  1.5551344647721960e-01 4.1014167352363697e-04 0.0000000000000000e+00  2.1080737064304053e-01 1.2808861531776635e-04 0.0000000000000000e+00  -7.2300446183347236e-07 -5.8498187159109559e-10 0.0000000000000000e+00  -6.3588892293932668e-07 -3.5618837252372613e-08 0.0000000000000000e+00  -1.2104854462132048e-06 -4.5726871565244513e-08 0.0000000000000000e+00  -1.5368356746664009e-07 -2.0847954539103516e-10 0.0000000000000000e+00  -1.0161995082083543e-07 -1.6031305866824366e-10 0.0000000000000000e+00  3.6824395079326552e-07 -2.2119994041909275e-07 0.0000000000000000e+00  -2.0727037738099415e-06 -2.7350724982191836e-07 0.0000000000000000e+00  -3.5245616542859347e-06 6.8373715242425053e-07 0.0000000000000000e+00  3.6161909085634058e-07 2.2706132721136124e-07 0.0000000000000000e+00  1.6584068928586685e-06 -4.1642780645786706e-07 0.0000000000000000e+00  1.5116761034318888e-07 -2.5523837795065865e-09 0.0000000000000000e+00  -9.3571082816344834e-07 6.4715309870504910e-10 0.0000000000000000e+00  -3.2088018195679811e-07 -2.7477010315064229e-10 0.0000000000000000e+00  3.4315215547380058e-03 1.1763633401584405e-02 0.0000000000000000e+00  1.2819020890558883e-01 4.8961099672574704e-03 0.0000000000000000e+00  1.1569602435122193e-01 -7.4939042416483845e-03 0.0000000000000000e+00  1.4761652789890131e-01 1.7980326167702014e-04 0.0000000000000000e+00  2.9252709572179930e-01 7.6929258237159931e-02 0.0000000000000000e+00  3.3532937805349727e-01 5.4391516614535118e-02 0.0000000000000000e+00  3.1535545493726913e-01 2.6465272086282302e-02 0.0000000000000000e+00  1.5547219897365358e-01 1.0814501928746826e-05 0.0000000000000000e+00  2.1712617751920821e-01 7.6640076189776589e-04 0.0000000000000000e+00  2.2535500261275937e-01 5.3239173280089707e-03 0.0000000000000000e+00  1.2850463429787329e-01 2.4116585496007040e-03 0.0000000000000000e+00  2.1700788136257182e-01 1.5690873029758290e-06 0.0000000000000000e+00  2.1723339470485564e-01 5.0457328159054401e-06 0.0000000000000000e+00  2.1191609961045571e-01 7.2688310920569845e-06 0.0000000000000000e+00  2.1580892150149630e-01 3.1012966253733025e-05 0.0000000000000000e+00  1.3946407249653281e-01 9.4500288343102999e-06 0.0000000000000000e+00  1.4781713310207301e-01 1.1824095552196239e-05 0.0000000000000000e+00  2.0574252554996067e-01 1.9443400367902941e-01 0.0000000000000000e+00  4.5054539073184546e-02 6.4563460204570017e-02 0.0000000000000000e+00  1.1398798845199026e-01 7.0131800220583473e-03 0.0000000000000000e+00  2.1898739156724631e-01 -5.4856445398922832e-03 0.0000000000000000e+00  1.8375031731289390e-01 7.1783804502983375e-04 0.0000000000000000e+00  2.1552157995968277e-01 4.0280471958405276e-04 0.0000000000000000e+00  2.2054470463507952e-01 4.6071373688275205e-03 0.0000000000000000e+00  2.1029300750582461e-01 1.0727897573192907e-05 0.0000000000000000e+00  1.4750570655975162e-01 1.0949902168532998e-03 0.0000000000000000e+00  2.1541485159754820e-01 1.8062684265984575e-03 0.0000000000000000e+00  2.5487921543971281e-01 -2.2257779781850694e-02 0.0000000000000000e+00  1.4326708930090137e-01 4.4800559939589309e-05 0.0000000000000000e+00  2.1219956914488508e-01 1.4609368374187079e-04 0.0000000000000000e+00  1.4061891643014343e-01 1.0171078757111460e-05 0.0000000000000000e+00  1.5647485741145378e-01 8.2865646986701166e-02 0.0000000000000000e+00  2.4887037030210685e-01 1.3258699731820908e-01 0.0000000000000000e+00  2.1597952397532555e-01 3.1535616212564829e-02 0.0000000000000000e+00  9.5200322557729963e-02 3.3094794141330535e-03 0.0000000000000000e+00  3.1851949823807990e-01 -1.0602619446759984e-01 0.0000000000000000e+00  1.9142373187603440e-01 1.2232556281721816e-02 0.0000000000000000e+00  3.9194310271634936e-01 1.8338576259693311e-02 0.0000000000000000e+00  2.1263604316205933e-01 3.4830569567519212e-03 0.0000000000000000e+00  2.0087600211792941e-01 5.4588514649524106e-03 0.0000000000000000e+00  3.4726225492104290e-01 1.8886910985240915e-01 0.0000000000000000e+00  2.7355213885216906e-01 3.5912065418184765e-02 0.0000000000000000e+00  2.3206249015741198e-01 7.1682197859801067e-02 0.0000000000000000e+00  2.1724572649959645e-01 1.2869844753191634e-04 0.0000000000000000e+00  2.0050650152768285e-01 -1.2576651744260331e-05 0.0000000000000000e+00  2.1285452078491782e-01 2.2827738498845250e-06 0.0000000000000000e+00  3.3084071284010080e-01 -5.1990186285296412e-02 0.0000000000000000e+00  1.2588089260382546e-01 2.5199998982841799e-02 0.0000000000000000e+00  1.3003071456657830e-01 4.8674356391335680e-04 0.0000000000000000e+00  2.0747990303886144e-01 2.1169750581724645e-02 0.0000000000000000e+00  1.5594430160373757e-01 4.7227058372608516e-02 0.0000000000000000e+00  2.1141377094120489e-01 2.4463073261188680e-03 0.0000000000000000e+00  1.4320379040599879e-01 1.0622329099597670e-03 0.0000000000000000e+00  1.5574725048227242e-01 -2.1891938390970908e-02 0.0000000000000000e+00  4.6989588898051049e-01 4.7251583061574412e-02 0.0000000000000000e+00  1.7168631956732455e-01 -7.4107600675423921e-02 0.0000000000000000e+00  3.0707903372195078e-01 -5.5056706241167486e-02 0.0000000000000000e+00  2.0389700773991151e-01 1.2254395362499551e-05 0.0000000000000000e+00  2.0696975474588700e-01 -2.1029563928192708e-02 0.0000000000000000e+00  2.0314792122337347e-01 8.7800671536311062e-04 0.0000000000000000e+00  2.1384071060316295e-01 1.9769777337425220e-03 0.0000000000000000e+00  2.0513465780176077e-01 -2.3975376130442390e-03 0.0000000000000000e+00  -9.4259461000375504e-03 -1.6542022324372524e-03 0.0000000000000000e+00  1.1190807716736476e-01 6.0841776151882276e-05 0.0000000000000000e+00  1.1572082059229820e-01 -3.1453120275485645e-03 0.0000000000000000e+00  1.0129023259175210e-01 -1.2685525562604631e-02 0.0000000000000000e+00  6.3145865448719862e-02 1.7764381015518544e-02 0.0000000000000000e+00  1.9990046405140141e-01 1.8136371404782502e-05 0.0000000000000000e+00  1.1974743169344028e-01 1.5859006160204942e-06 0.0000000000000000e+00  4.0537855181280741e-01 -3.8990872510108784e-02 0.0000000000000000e+00  2.1280202489211475e-01 2.4084378316728726e-04 0.0000000000000000e+00  2.0512492157451945e-01 3.0760984628596081e-05 0.0000000000000000e+00  3.5785434531800768e-02 6.7619133438838755e-08 0.0000000000000000e+00  9.0817018289270482e-02 -5.9250276847662972e-02 0.0000000000000000e+00  1.5901527831351062e-01 4.2378960898268772e-02 0.0000000000000000e+00  2.1484455705525546e-01 3.6517946278654077e-05 0.0000000000000000e+00  2.0308817300738410e-01 4.3112914547884597e-04 0.0000000000000000e+00  9.4111349489839638e-02 -9.8379622008546996e-03 0.0000000000000000e+00  2.2363594054096733e-01 -4.1470896106101253e-02 0.0000000000000000e+00  3.8073939457759987e-01 3.5779957139466675e-02 0.0000000000000000e+00  1.3020596652699026e-01 4.9069475978256343e-04 0.0000000000000000e+00  1.1027228804445718e-01 5.5894194540410620e-05 0.0000000000000000e+00  1.2268429510976896e-01 -6.2064017121102725e-06 0.0000000000000000e+00  -2.9875364152625217e-03 2.3841207537931949e-02 0.0000000000000000e+00  3.3356381846323868e-01 2.2351665288896018e-08 0.0000000000000000e+00  1.1469359826259327e-01 1.1097497194223357e-03 0.0000000000000000e+00  3.9192364845294486e-01 5.5395133683034245e-03 0.0000000000000000e+00  1.2690677129659891e-01 6.2596651218473914e-07 0.0000000000000000e+00  2.0437298220307371e-01 -1.0910711311004302e-02 0.0000000000000000e+00  1.1852651441943100e-01 -6.7701184532146329e-08 0.0000000000000000e+00  2.1287489096516085e-01 7.6891107505316741e-06 0.0000000000000000e+00  1.2268975936088430e-01 1.0780401033525802e-05 0.0000000000000000e+00  2.1733316608526776e-01 -5.7543405865718151e-08 0.0000000000000000e+00  1.2269547976182428e-01 1.2242748115953600e-05 0.0000000000000000e+00  2.0005098501910382e-01 2.1774586456046411e-03 0.0000000000000000e+00  2.1558289916971393e-01 3.6056830157358653e-06 0.0000000000000000e+00  1.2553113795867299e-01 -1.2469976694304364e-04 0.0000000000000000e+00  9.9225063552812562e-02 8.1739732355540142e-04 0.0000000000000000e+00  1.9819971322416244e-01 2.7494288005048611e-03 0.0000000000000000e+00  4.9112385843424061e-02 -1.3262717892071896e-02 0.0000000000000000e+00  3.1662483854625478e-01 -1.6544160127304003e-02 0.0000000000000000e+00  2.8743685832723631e-01 -1.9794424039920197e-02 0.0000000000000000e+00  4.1614871926287600e-01 -4.9776875579606250e-02 0.0000000000000000e+00  1.1237713841749941e-01 2.2601325239608494e-04 0.0000000000000000e+00  3.3229142539838552e-01 -6.7037391339584584e-02 0.0000000000000000e+00  2.6755122210184346e-01 -2.5136568719581948e-02 0.0000000000000000e+00  1.9533016789010327e-01 1.3057839350350343e-05 0.0000000000000000e+00  2.2195109617267716e-01 -2.4279546694789187e-02 0.0000000000000000e+00  9.4062150026368876e-02 6.6862405877751457e-06 0.0000000000000000e+00  1.3003932841695384e-01 -1.3613898310208867e-02 0.0000000000000000e+00  2.2908341622035389e-01 2.5473674056