<?xml version="1.0"?>
<VTKFile type="UnstructuredGrid"  version="0.1"  >
<UnstructuredGrid>
<Piece  NumberOfPoints="1404" NumberOfCells="2604">
<Points>
<DataArray  type="Float64"  NumberOfComponents="3"  format="ascii">0 0.41 0  0 0 0  2.2 0 0  2.2 0.41 0  0.2353553390593274 0.2353553390593274 0  0.25 0.2 0  0.2353553390593274 0.1646446609406726 0  0.2 0.15 0  0.1646446609406726 0.1646446609406726 0  0.15 0.2 0  0.1646446609406726 0.2353553390593274 0  0.2 0.25 0  0.6923879532511287 0.188268343236509 0  0.7 0.15 0  0.6923879532511287 0.1117316567634909 0  0.6707106781186547 0.07928932188134523 0  0.6382683432365089 0.05761204674887133 0  0.6 0.04999999999999999 0  0.5617316567634909 0.05761204674887134 0  0.5292893218813453 0.07928932188134524 0  0.5076120467488713 0.111731656763491 0  0.5 0.15 0  0.5076120467488713 0.188268343236509 0  0.5292893218813453 0.2207106781186547 0  0.561731656763491 0.2423879532511287 0  0.6 0.25 0  0.6382683432365089 0.2423879532511287 0  0.6707106781186547 0.2207106781186547 0  1.1 0 0  0 0.205 0  1.1 0.41 0  0.55 0 0  0.55 0.41 0  0.275 0 0  0.8250000000000001 0 0  0.275 0.41 0  0.8250000000000001 0.41 0  0.6875 0 0  0.61875 0 0  1.65 0.41 0  1.65 0 0  1.375 0 0  1.375 0.41 0  1.925 0 0  1.925 0.41 0  1.5125 0.205 0  1.7875 0.205 0  0.9625000000000001 0.205 0  1.2375 0.205 0  2.2 0.205 0  1.99375 0.2152743902439024 0  0.4125 0.41 0  2.0625 0 0  2.0625 0.41 0  2.2 0.3075 0  1.7875 0.41 0  1.375 0.1486128048780488 0  1.5125 0 0  1.7875 0 0  1.5125 0.41 0  0.9625000000000001 0.41 0  0.4125 0 0  0.1375 0 0  0.1375 0.41 0  0.6875 0.41 0  0.9625000000000001 0 0  1.2375 0 0  1.1 0.1486128048780488 0  1.2375 0.41 0  1.65 0.1486128048780487 0  0.823495464168302 0.2603780552348366 0  0.3738707794507017 0.2720196349488618 0  0.3662291281331582 0.1311456406657909 0  1.676715909090909 0.2793064024390244 0  1.126715909090909 0.2793064024390244 0  1.348284090909091 0.2793064024390244 0  0.8287581077665108 0.1302150898054257 0  1.894702181800738 0.1282910975492754 0  2.092797818199262 0.1282910975492754 0  1.85625 0.3075 0  0 0.3075 0  0 0.1025 0  2.099172119769978 0.25625 0  0.4752414543992246 0.3180372603390748 0  1.99375 0.08395950269330846 0  1.459960956013612 0.3075 0  1.569025960719943 0.2986889805672169 0  1.03125 0.3278689922742084 0  1.959375 0.3126371951219512 0  1.749222215368287 0.1025 0  1.275777784631713 0.1025 0  0.9228016959331474 0.3075 0  1.000777784631713 0.1025 0  2.2 0.1025 0  1.225938124459196 0.3075 0  1.550777784631713 0.1025 0  1.44375 0.07430640243902442 0  1.16875 0.07430640243902439 0  0.7562500000000001 0.3358727844323386 0  0.89375 0 0  1.899250267340833 0.2229966846119207 0  0.61875 0.41 0  1.766482954545455 0.2934032012195123 0  1.046078563095834 0.2389031808701145 0  1.421109702350723 0.2261157654379721 0  0.07567171807980319 0.25625 0  0.2511897295290552 0.3235829392832554 0  0.07655002503762308 0.1488653460959645 0  0.1377245246847496 0.3206030474919778 0  0.6694099692696568 0.3242771941727899 0  0.9168971191497528 0.1295727156104653 0  0.7562500000000001 0 0  2.118919042110979 0.3422084711244843 0  2.13125 0 0  0.06875000000000001 0 0  1.30625 0.41 0  1.597888256393107 0.2173787389261347 0  0.34375 0.41 0  0.2493272016354703 0.08091360081773515 0  0.5588896233436766 0.3264056208677571 0  1.829299675393195 0.07400700849299596 0  0.1334079128307869 0.08523463035786674 0  1.71875 0.41 0  0.06875000000000001 0.41 0  1.16875 0.41 0  2.038220665644273 0.332420740103091 0  0.8810647413215221 0.2027360103977071 0  0.34375 0 0  0.7453891198966415 0.2471459041008237 0  0.42112093004955 0.1988123139090554 0  0.8314023090855964 0.3351170841770613 0  0.89375 0.41 0  0.7906250000000001 0.06615386481594063 0  1.452769549894695 0.1548122580621249 0  1.369219062229598 0.07430640243902442 0  1.30625 0 0  1.07420695807087 0.07430640243902439 0  1.720943423819132 0.1714577452753128 0  1.157188124459196 0.205 0  1.304056576180868 0.1714577452753128 0  1.67579304192913 0.07430640243902437 0  1.209670467133757 0.136210026696477 0  0.4312800784902823 0.08036147352247747 0  0.8723959680194693 0.07066860609690805 0  1.025335513626278 0.1700681449722324 0  0.7945632284247136 0.1940204203251442 0  0.378125 0.3452261501101892 0  0.3307109909790086 0.2037165635083759 0  0.3009701032039409 0.2702970083403109 0  0.20625 0.41 0  1.58125 0 0  0.4812500000000001 0 0  0.9838963872396855 0.2722244191167347 0  0.06772484939107212 0.3260067317374387 0  0.20625 0 0  1.58125 0.41 0  1.631724228912893 0.3381867502687533 0  1.825608881788174 0.14499488549201 0  1.85625 0 0  1.44375 0 0  1.44375 0.41 0  1.85625 0.41 0  2.13125 0.41 0  0.7562500000000001 0.41 0  0.4812500000000001 0.41 0  1.16875 0 0  1.03125 0.41 0  1.03125 0 0  1.71875 0 0  1.99375 0 0  1.99375 0.41 0  0.9408708167433545 0.0651989315768642 0  1.340625 0.3489494290853124 0  1.134375 0.3489494290853123 0  1.700180620188976 0.3438659752031281 0  0.29668452290037 0.1318471691375986 0  0.3175441051360096 0.06496934809856265 0  0.06509151636162461 0.08140814015999148 0  2.135782184673599 0.07126652247502523 0  1.668441847249787 0.2129203728327609 0  1.295782514339747 0.2378437748815763 0  1.409375 0.3520314716057996 0  2.129248544730567 0.1906135162504124 0  2.060771381434487 0.1989445750470348 0  2.013252586573865 0.1496169464686054 0  1.942766402200229 0.1734448904596831 0  1.895522487186454 0.06076163953489683 0  2.069553871656643 0.06605731020975725 0  0.4670911801404742 0.2498408582391372 0  0.7622743084658112 0.1264100838268133 0  1.274680914880868 0.3520219391081363 0  0.3148669572599245 0.3331753056385887 0  1.614713220494657 0.09473434380863296 0  1.72990325744076 0.2380068107952482 0  1.356580098625191 0.2120393231351682 0  2.034370752044885 0.2668681600792073 0  1.51768709249349 0.3426260931494756 0  1.561883724969884 0.1650446847858835 0  1.197344062229598 0.2523725417393646 0  1.804085235518364 0.3468178408964637 0  1.817887819205233 0.2589243285818559 0  1.905897727272727 0.3485060975609756 0  0.7296439733931823 0.06337466644369745 0  0.4250935971865949 0.1394919578475796 0  0.3773030136511669 0.05130372097998036 0  1.192836486056382 0.3562350748565544 0  1.1029124365364 0.226143510831178 0  1.28257088594801 0.2944411014911587 0  0.1905185804731426 0.06029880676029167 0  1.474860187679412 0.2504218616229368 0  1.406767003493824 0.2829282258560709 0  0.5209826960981064 0.2830664557824064 0  0.5131119502780163 0.3617405848213254 0  0.1948220106098172 0.3081993407644811 0  1.845656689180403 0.1998310418452388 0  2.144958525570388 0.2909790873294231 0  2.2 0.15375 0  0.8833025251326762 0.2625402923007629 0  0.171875 0.3653875762360952 0  1.57794966442982 0.3540357145964566 0  0.446875 0.366068291212731 0  0.4272051715206439 0.2891929346190664 0  1.508991196088596 0.1421783375065625 0  1.50436820029908 0.06143401634903343 0  1.223857000523521 0.08235548624535324 0  0.6137904613287555 0.3066826366281556 0  1.153316824384777 0.1289850171317838 0  0.9751573703656133 0.327632618473408 0  2.148922302309752 0.1258841779285271 0  0.9281250000000001 0.3643758685795699 0  1.621993280276081 0.2841214267927899 0  1.550118654119087 0.2461998729100966 0  1.327182649291491 0.1216967252533594 0  0.9939955742738924 0.04663549843168518 0  1.753125 0.04556020050186112 0  1.271875 0.04556020050186116 0  0.9734326767716519 0.1506854560854393 0  0.103125 0.3675775577080512 0  1.94956388244759 0.1180512551534177 0  1.949997712993411 0.04965831614304109 0  0.717433898748555 0.295596016333797 0  1.771961817615021 0.1530278789497521 0  1.909246823951428 0.2812757146784527 0  0 0.35875 0  1.050632804931928 0.1226269704412814 0  0.05695108326502596 0.2024009637347154 0  1.948575539857022 0.2445328248721197 0  1.697271520964565 0.1233917627620729 0  1.065625 0.3689344961371042 0  1.085849084308977 0.3170853572226867 0  0.1015495998772944 0.04226029099983852 0  1.577403511714593 0.05463601888079143 0  1.751571320346033 0.3651102912045228 0  2.2 0.35875 0  0.7441773632462837 0.1786786606458751 0  0 0.05125 0  1.466879772203159 0.3611261772912453 0  0.6282230348858767 0.3577675483994025 0  1.990280163552011 0.3564754268533217 0  1.17471064520912 0.2990917256188288 0  0 0.25625 0  2.2 0.25625 0  2.2 0.05125 0  0 0.15375 0  1.853978576207987 0.35875 0  1.515638456102889 0.2882700110184686 0  2.150453692751374 0.2387066338105111 0  1.323782677156475 0.04897634338873398 0  1.409375 0.03715320121951221 0  1.406484531114799 0.1087852750766809 0  1.134375 0.03715320121951219 0  0.721875 0.3729363922161693 0  0.7941695928236929 0.3696489254637395 0  0.7934827162619036 0.3013409431456604 0  1.627401732573545 0.04552157221025036 0  0.9352049974617431 0.2507047965699472 0  0.8763260682738339 0.3611103317460093 0  2.045405893604797 0.1105340662939892 0  1.255408269734577 0.1577307500159216 0  2.028125 0.03707597992059326 0  1.003030137506755 0.3689344961371042 0  1.248258025468107 0.2565907092181813 0  1.203125 0.03661323374043041 0  0.4800125512335631 0.0549472816999725 0  2.072662025974815 0.2975086504196739 0  0.240625 0.3729825336867542 0  1.113252391110535 0.10238286244357 0  1.071052763974265 0.1885202618768825 0  0.8738809401657862 0.3106483608284829 0  0.6786819423003397 0.2677558482644021 0  1.887722846421017 0.1760882698830035 0  1.472640588990488 0.1118278026240017 0  0.5843750000000001 0.41 0  1.865937103925594 0.2604137786483804 0  1.463913572748262 0.2030442564990043 0  1.376426316059077 0.3186741374914345 0  0.1038643885363755 0.2162701735320032 0  0.1769473813227781 0.1070849728467114 0  0.458787839809176 0.171541653775316 0  0.240625 0 0  0.04179569703428024 0.2877217852556549 0  0.1258346557601885 0.2699740073054968 0  1.722140693354707 0.282908100935778 0  0.41206179117512 0.2448172567039922 0  0.3702471778075604 0.2265217604228704 0  0.3714881805374215 0.1786967818665642 0  1.77397096061971 0.2481483237422926 0  2.105123889160691 0.03743885948498647 0  1.001138337938679 0.229719337663998 0  1.051242910646791 0.2854826559431138 0  1.395420985247586 0.18
[...]
<PointData  Vectors="f_37"> 
<DataArray  type="Float64"  Name="f_37"  NumberOfComponents="3" format="ascii">1.7917344816096209e-07 -5.9120698284259678e-08 0.0000000000000000e+00  -4.4408489796714352e-06 -3.6605451145484582e-07 0.0000000000000000e+00  -9.1936932112514121e-07 1.5283426736276351e-09 0.0000000000000000e+00  -1.1562667335069627e-06 -7.7094544454905637e-10 0.0000000000000000e+00  -1.3963918612731589e-07 1.0607731349248571e-06 0.0000000000000000e+00  -2.1002823861750108e-08 1.8111212748299496e-06 0.0000000000000000e+00  4.3170319513061602e-08 7.0920702459773144e-07 0.0000000000000000e+00  -2.2097421970735134e-06 -3.7915928187696884e-07 0.0000000000000000e+00  -5.4648485014151355e-07 4.5820427512647706e-07 0.0000000000000000e+00  -1.7560755940180295e-07 -6.8261133563643056e-07 0.0000000000000000e+00  -7.6590160440956398e-07 -2.0494554611650531e-07 0.0000000000000000e+00  -2.1803034349010044e-07 -1.3694182182530819e-07 0.0000000000000000e+00  1.3543168538890895e-06 -3.5777027434284572e-06 0.0000000000000000e+00  -2.5110598459739695e-07 -4.7890804886063942e-06 0.0000000000000000e+00  -8.0427649329147911e-07 -2.3554863170717466e-06 0.0000000000000000e+00  -1.2328364174231526e-06 5.7455583771594546e-07 0.0000000000000000e+00  2.6950370678095343e-06 1.3751985579163822e-06 0.0000000000000000e+00  3.1109501149727459e-01 8.5809841797938144e-02 0.0000000000000000e+00  5.5168565689688283e-06 3.4514065393469860e-06 0.0000000000000000e+00  5.8854289604845372e-06 1.0095398717876084e-06 0.0000000000000000e+00  -2.0554318330263991e-06 -5.0413753319925499e-06 0.0000000000000000e+00  6.4170259579992076e-09 4.2816761188115092e-06 0.0000000000000000e+00  5.6766216309693029e-06 6.1063917448991816e-06 0.0000000000000000e+00  5.0474744552193237e-06 -4.9066699893116449e-06 0.0000000000000000e+00  -4.4188981958408349e-06 -6.6439630737632796e-06 0.0000000000000000e+00  -8.5542816169164183e-06 -1.1603896725089736e-06 0.0000000000000000e+00  -6.3464887433860552e-06 1.6269510500534117e-06 0.0000000000000000e+00  5.4961246668867125e-07 -8.0871484894887050e-07 0.0000000000000000e+00  -1.6345704892904573e-06 1.6992249910370377e-07 0.0000000000000000e+00  1.6583337171294951e-01 -2.2639289787838659e-07 0.0000000000000000e+00  -2.3271829717470247e-06 -9.8201104316343010e-08 0.0000000000000000e+00  6.3240251662155326e-06 2.9332226766202753e-06 0.0000000000000000e+00  -1.4028057424018589e-06 -3.1118617714075864e-07 0.0000000000000000e+00  2.1291699473097194e-07 1.2314415778540920e-07 0.0000000000000000e+00  8.2517782452328645e-07 -1.7982644499225228e-07 0.0000000000000000e+00  -2.0375291822557029e-06 -2.3467110256463420e-07 0.0000000000000000e+00  -4.1101353457673180e-07 2.5402910061109009e-07 0.0000000000000000e+00  -2.0874085908895063e-06 -4.4575816267775187e-07 0.0000000000000000e+00  -7.1499806405674954e-06 -3.4206568947819025e-07 0.0000000000000000e+00  -1.2987492429094784e-06 -1.2416478375584349e-10 0.0000000000000000e+00  -1.6810007499239062e-06 -1.7406605373769972e-09 0.0000000000000000e+00  -9.5951682307816189e-07 -5.5811947070366332e-09 0.0000000000000000e+00  -5.9241223299684940e-07 -6.7974537597736405e-09 0.0000000000000000e+00  -7.6713507874793910e-07 1.9689281795463673e-10 0.0000000000000000e+00  -2.3397073021348843e-07 -7.5057113755007542e-10 0.0000000000000000e+00  2.0414374757018861e-01 7.5873707895361426e-05 0.0000000000000000e+00  2.0413883865969451e-01 3.0259360316114479e-05 0.0000000000000000e+00  2.2815396034540786e-01 -1.0116622884842671e-01 0.0000000000000000e+00  2.0486014316803941e-01 -3.3067298822783324e-03 0.0000000000000000e+00  2.0415484972866513e-01 -1.0935691846348987e-05 0.0000000000000000e+00  2.0412853266171213e-01 5.4924711511436885e-06 0.0000000000000000e+00  -2.8575274743931558e-07 8.7474561856683951e-08 0.0000000000000000e+00  -4.9270567007233022e-08 1.0018747764445860e-09 0.0000000000000000e+00  -8.3682013373326684e-07 1.8814112527306208e-09 0.0000000000000000e+00  1.9336826413956681e-01 -1.5317325279435619e-07 0.0000000000000000e+00  -1.1526725936453904e-06 -7.3047605445191865e-10 0.0000000000000000e+00  2.0279307388224138e-01 -1.9819532531234867e-04 0.0000000000000000e+00  -1.6445984337762920e-06 -2.4959177396427188e-09 0.0000000000000000e+00  -1.3760816841607866e-06 -5.7760217175781102e-10 0.0000000000000000e+00  -9.2338921313767585e-07 -2.9188286119325848e-09 0.0000000000000000e+00  8.0423345464813530e-07 9.6380078735481340e-08 0.0000000000000000e+00  2.5652419313645504e-07 -4.4142375799905648e-07 0.0000000000000000e+00  -9.6060324616625762e-07 -1.8072185036185007e-08 0.0000000000000000e+00  7.8002638256001068e-07 4.0914049973360664e-07 0.0000000000000000e+00  -1.0966364488560548e-06 -1.1485072091919418e-07 0.0000000000000000e+00  -3.2736873477604802e-06 3.8572440601592272e-07 0.0000000000000000e+00  6.6295857832683564e-07 7.0104512647348622e-09 0.0000000000000000e+00  1.9430927874378479e-01 -2.1187131404152730e-02 0.0000000000000000e+00  -6.4386656522936005e-07 -1.3785151265089111e-08 0.0000000000000000e+00  2.0310352443007007e-01 5.7559384505790450e-05 0.0000000000000000e+00  3.4528142137479634e-01 -1.0285478967082688e-01 0.0000000000000000e+00  9.5575324153743604e-02 1.4415575266591261e-02 0.0000000000000000e+00  3.0899193388856316e-01 1.2693476351530755e-01 0.0000000000000000e+00  2.0125101493525854e-01 4.8968701840498929e-05 0.0000000000000000e+00  2.1282481200851189e-01 -4.8586081441777387e-03 0.0000000000000000e+00  2.0176001414416125e-01 -9.3002350874423674e-05 0.0000000000000000e+00  3.1320499072030154e-02 1.7938348653136850e-02 0.0000000000000000e+00  2.0089835370180201e-01 2.4763803715957743e-05 0.0000000000000000e+00  2.0085472111499450e-01 3.2094469413696978e-06 0.0000000000000000e+00  1.9336724765109589e-01 1.2401996186448960e-05 0.0000000000000000e+00  7.5234839470278148e-02 8.6319597963494527e-08 0.0000000000000000e+00  2.7319259857414818e-01 9.5018010416158081e-08 0.0000000000000000e+00  2.0336888130949612e-01 -9.1772016004763077e-07 0.0000000000000000e+00  2.6212396806476140e-01 8.6967703866076843e-02 0.0000000000000000e+00  1.8162588162061868e-01 1.3663691264508836e-07 0.0000000000000000e+00  1.9329787856870573e-01 1.4785468081470845e-04 0.0000000000000000e+00  1.9675065996803234e-01 1.0318081317396126e-04 0.0000000000000000e+00  1.9561689707571719e-01 -6.7325385404439148e-04 0.0000000000000000e+00  1.9081951746195441e-01 -3.2237747902461950e-06 0.0000000000000000e+00  1.9341779195024980e-01 1.1702326102848893e-05 0.0000000000000000e+00  1.9216321292914931e-01 -7.7703828401476632e-04 0.0000000000000000e+00  3.0339401072328920e-01 -6.1785296502945113e-02 0.0000000000000000e+00  1.4412951101350790e-01 -3.7742275531797265e-02 0.0000000000000000e+00  1.9337544485817618e-01 -6.5267915980287264e-06 0.0000000000000000e+00  1.9549852015372993e-01 -3.0293817331619423e-04 0.0000000000000000e+00  1.9338345725363806e-01 9.3721213284740204e-05 0.0000000000000000e+00  1.7252983482141801e-01 1.4483362117796104e-04 0.0000000000000000e+00  1.6783163787721034e-01 -3.0055392937334111e-03 0.0000000000000000e+00  4.1658620509627414e-01 -6.2689813187821478e-02 0.0000000000000000e+00  -1.5239798643578898e-06 2.0249427345437708e-07 0.0000000000000000e+00  2.0409834263158086e-01 1.3139441113368125e-05 0.0000000000000000e+00  5.8638728566475564e-08 -1.9846655538421756e-07 0.0000000000000000e+00  1.9832025012848500e-01 4.6143913648471470e-05 0.0000000000000000e+00  2.3499121103311538e-01 -3.4252842784089514e-02 0.0000000000000000e+00  2.0414791299304291e-01 -4.0864313731547733e-05 0.0000000000000000e+00  1.2601229957951193e-01 6.8997218539384772e-02 0.0000000000000000e+00  2.3112018209378793e-01 2.3632284964097344e-02 0.0000000000000000e+00  2.0927402742935006e-01 2.3298292056810298e-02 0.0000000000000000e+00  1.4852197555527921e-01 7.3096721778692392e-02 0.0000000000000000e+00  4.6654023851815057e-01 -3.2342689887596802e-02 0.0000000000000000e+00  9.4862611096322991e-02 -5.8492450430642780e-02 0.0000000000000000e+00  6.0590395481013613e-07 -2.9530281454911843e-07 0.0000000000000000e+00  1.6452994013663819e-01 6.9513010699382468e-06 0.0000000000000000e+00  -2.0667178625928323e-06 -4.5353192439879799e-09 0.0000000000000000e+00  -1.3164991592985938e-06 1.7350944550287103e-08 0.0000000000000000e+00  -4.2542371290490703e-07 -2.2016193094040285e-09 0.0000000000000000e+00  2.0410668795088824e-01 8.5695761618832981e-05 0.0000000000000000e+00  -2.2428416614292464e-06 -1.9962369718398530e-07 0.0000000000000000e+00  4.0367050430882223e-01 4.9441561842522914e-02 0.0000000000000000e+00  4.0045662519516495e-01 7.5366752084414068e-02 0.0000000000000000e+00  1.7205238067345063e-01 -3.5613863056075044e-06 0.0000000000000000e+00  3.4471587938891035e-01 1.3474396607602530e-02 0.0000000000000000e+00  -1.3640438805896041e-06 -4.8172491651065911e-10 0.0000000000000000e+00  2.3998161150009077e-07 -4.4560846643426974e-08 0.0000000000000000e+00  -1.4562114711391624e-06 -2.4462548053909399e-08 0.0000000000000000e+00  1.7576341044819963e-01 -2.7012720141146736e-06 0.0000000000000000e+00  1.9273771199819992e-01 -1.0439643632618859e-01 0.0000000000000000e+00  -3.1112063665998835e-07 -2.4130288573783108e-07 0.0000000000000000e+00  1.9854500994150082e-01 -3.7162889394540301e-02 0.0000000000000000e+00  1.7464391458585701e-01 1.7875741112794702e-01 0.0000000000000000e+00  3.4268154433821263e-01 -6.4888117738505183e-02 0.0000000000000000e+00  3.2654931404887058e-06 3.5694598748259531e-07 0.0000000000000000e+00  9.1475173445828104e-02 4.0635589841167261e-02 0.0000000000000000e+00  2.0336420873612815e-01 6.0635540187760806e-05 0.0000000000000000e+00  1.7252977990654114e-01 1.1812110106179767e-04 0.0000000000000000e+00  2.4043181359233291e-08 -2.9261042203769485e-09 0.0000000000000000e+00  1.5372542504322442e-01 -1.1873252871612431e-02 0.0000000000000000e+00  2.0389947736284816e-01 3.6497687047589807e-05 0.0000000000000000e+00  2.0701260317484302e-01 -1.0024887919682257e-02 0.0000000000000000e+00  2.0347561000799999e-01 -1.1831512980353793e-03 0.0000000000000000e+00  1.7235251196265222e-01 3.6634232563217912e-05 0.0000000000000000e+00  1.9893801039108175e-01 -4.2464574565081138e-03 0.0000000000000000e+00  2.0845620434435047e-01 1.9958661419966779e-02 0.0000000000000000e+00  6.7486750795084982e-02 -3.8651936168783178e-03 0.0000000000000000e+00  1.9378181865962354e-01 -5.5920403047579094e-02 0.0000000000000000e+00  6.7549393766274834e-02 3.5015546305152976e-03 0.0000000000000000e+00  2.1923681505599721e-01 5.9889242693354616e-03 0.0000000000000000e+00  5.0897452040988396e-02 2.6862410079815838e-02 0.0000000000000000e+00  8.3480602640880960e-02 -2.2425995140380319e-02 0.0000000000000000e+00  -6.6250983503559424e-07 3.9894091739365802e-07 0.0000000000000000e+00  -7.8847225915380330e-07 -2.7575575981804138e-09 0.0000000000000000e+00  -3.1481532361463933e-07 5.1958536738509891e-07 0.0000000000000000e+00  2.7781051699133624e-01 -5.1311748173622183e-02 0.0000000000000000e+00  7.8231452295275561e-02 2.8040880462447054e-02 0.0000000000000000e+00  -2.3639788330299743e-06 -3.9243990105175579e-08 0.0000000000000000e+00  -9.8273372948117103e-07 -9.8725043004141355e-10 0.0000000000000000e+00  1.6942825067856940e-01 4.8866875751455901e-05 0.0000000000000000e+00  2.0278564365998383e-01 1.8063639990528841e-05 0.0000000000000000e+00  -1.0088840031317730e-06 2.4709947337558917e-10 0.0000000000000000e+00  -1.2323455439711537e-06 -3.6109026551509108e-09 0.0000000000000000e+00  -1.1588902451337845e-06 -4.7389251546875883e-09 0.0000000000000000e+00  -3.3477646268690906e-07 1.6373172527706833e-10 0.0000000000000000e+00  -3.0675111672941526e-07 -5.5640851712322493e-10 0.0000000000000000e+00  1.3133535897908722e-06 -1.9276103429625206e-07 0.0000000000000000e+00  -3.9460169594951359e-06 -2.7572351708943041e-07 0.0000000000000000e+00  -7.6636166414118318e-07 8.0862089083029788e-08 0.0000000000000000e+00  -1.6328060773589039e-06 -7.8596375032368896e-08 0.0000000000000000e+00  -1.8815067243794218e-06 2.4131865494240010e-07 0.0000000000000000e+00  -1.8309379864684105e-08 -1.6127369519876015e-09 0.0000000000000000e+00  -1.2894931456992023e-06 1.5380774546850099e-09 0.0000000000000000e+00  -5.3725436815140596e-07 -6.0225919469142470e-10 0.0000000000000000e+00  8.9210479779372479e-02 -2.0798671237064779e-02 0.0000000000000000e+00  1.5458665769999233e-01 2.3282398984603229e-04 0.0000000000000000e+00  1.5520839943118150e-01 1.2447809909217269e-03 0.0000000000000000e+00  1.6230475680239015e-01 2.2150117042393704e-05 0.0000000000000000e+00  3.0528771563059542e-01 8.9559269868766084e-02 0.0000000000000000e+00  3.2295700012346740e-01 6.0028275156424588e-02 0.0000000000000000e+00  3.1565632276846750e-01 2.6006569252994813e-02 0.0000000000000000e+00  1.6886233874246462e-01 5.3679642470051691e-06 0.0000000000000000e+00  2.0412590671262870e-01 6.1382064554171337e-05 0.0000000000000000e+00  2.0478052109330117e-01 -1.0651593193068179e-03 0.0000000000000000e+00  1.4984245745055860e-01 1.4960385924891743e-04 0.0000000000000000e+00  2.0412541724465322e-01 -5.6691545072872510e-06 0.0000000000000000e+00  2.0414151497334285e-01 -2.3055346716875640e-06 0.0000000000000000e+00  2.0311063949585209e-01 2.6101345988919297e-06 0.0000000000000000e+00  2.0393984536332430e-01 7.2165403944557597e-06 0.0000000000000000e+00  1.5468872426480940e-01 1.5417942737695416e-06 0.0000000000000000e+00  1.6222167886902952e-01 5.4062759445253021e-06 0.0000000000000000e+00  2.1237648861319508e-01 2.0616437305350918e-01 0.0000000000000000e+00  1.5857544823124743e-02 6.3889786221057662e-02 0.0000000000000000e+00  1.4962453615531524e-01 3.2180981262901301e-04 0.0000000000000000e+00  2.2268461479508145e-01 -6.3181655244484080e-03 0.0000000000000000e+00  1.8940031884643999e-01 6.3035978938440410e-05 0.0000000000000000e+00  2.0391082480494488e-01 3.8795599445200594e-05 0.0000000000000000e+00  2.0427671553542717e-01 -4.3630062348132232e-04 0.0000000000000000e+00  2.0271217471658751e-01 5.5911289374505631e-06 0.0000000000000000e+00  1.6376858254138599e-01 1.0807194226513960e-04 0.0000000000000000e+00  2.0378029064316794e-01 8.7056447205393432e-05 0.0000000000000000e+00  2.0776183470641907e-01 -3.6838944292598265e-03 0.0000000000000000e+00  1.5820215697665432e-01 6.7792525766160042e-06 0.0000000000000000e+00  2.0321163336419540e-01 2.5386125881592121e-05 0.0000000000000000e+00  1.5575619291545098e-01 4.2984948343992601e-08 0.0000000000000000e+00  1.4067753853575871e-01 7.4827473608492151e-02 0.0000000000000000e+00  2.3565366506352281e-01 1.3465131651919096e-01 0.0000000000000000e+00  1.9534023731016950e-01 3.1123451840791641e-02 0.0000000000000000e+00  1.4225989722937238e-01 6.3565851369027976e-04 0.0000000000000000e+00  2.1589114242684893e-01 -1.7890649247914923e-02 0.0000000000000000e+00  1.9924651245699823e-01 -2.5946107611232863e-04 0.0000000000000000e+00  3.9252164419897018e-01 2.0437866307413090e-02 0.0000000000000000e+00  2.0362856443225077e-01 8.7732303587456965e-05 0.0000000000000000e+00  2.0080388611753763e-01 8.3744152171224612e-05 0.0000000000000000e+00  3.4634271550575341e-01 1.8144687173767346e-01 0.0000000000000000e+00  3.0062115720795096e-01 3.9990250702204341e-02 0.0000000000000000e+00  2.3283191687947091e-01 7.9908575266179491e-02 0.0000000000000000e+00  2.0413251551037814e-01 2.5505384285266928e-05 0.0000000000000000e+00  1.9904469496425412e-01 -1.3852667043834206e-05 0.0000000000000000e+00  2.0337793562319792e-01 -5.9810230895346652e-06 0.0000000000000000e+00  3.4983635419993875e-01 -1.1925779756054367e-01 0.0000000000000000e+00  1.2116316448614993e-01 2.8129088025296151e-02 0.0000000000000000e+00  1.4680762317136878e-01 6.1838982667039902e-05 0.0000000000000000e+00  2.2275028137822922e-01 2.5144905018955648e-02 0.0000000000000000e+00  1.6649478831407402e-01 6.9577915120311681e-02 0.0000000000000000e+00  2.0259697407984911e-01 1.0609363584224462e-04 0.0000000000000000e+00  1.5589780769700132e-01 8.7725050664027394e-05 0.0000000000000000e+00  1.7820490960509811e-01 -1.3413861333287382e-03 0.0000000000000000e+00  4.6746988515511539e-01 2.8427430353664924e-02 0.0000000000000000e+00  1.9438252029736600e-01 -9.1313947855628762e-03 0.0000000000000000e+00  2.1705993138933435e-01 -1.4753157916069267e-02 0.0000000000000000e+00  2.0047305838870200e-01 5.0368907572488924e-06 0.0000000000000000e+00  1.3944488619860781e-01 -1.0325782883021198e-02 0.0000000000000000e+00  2.0038702525523602e-01 6.6971884434890145e-05 0.0000000000000000e+00  2.0371751425256190e-01 9.4413573438560178e-05 0.0000000000000000e+00  1.9897512057998404e-01 -3.9342817450318043e-04 0.0000000000000000e+00  9.2735784399539598e-02 -1.1697259859443069e-02 0.0000000000000000e+00  1.2750732974320034e-01 2.0842454939915114e-06 0.0000000000000000e+00  1.2800505580809232e-01 -9.7228008312076692e-06 0.0000000000000000e+00  1.5622033545546160e-01 -7.5404470252420211e-02 0.0000000000000000e+00  5.8744899930985021e-02 1.5322934045072678e-02 0.0000000000000000e+00  1.9870103992658203e-01 5.0323083130377870e-06 0.0000000000000000e+00  1.3564503559672242e-01 5.2993037828000673e-06 0.0000000000000000e+00  4.2430887320081440e-01 -6.4184751810139926e-02 0.0000000000000000e+00  2.0331433776877800e-01 2.3288838437819472e-05 0.0000000000000000e+00  2.0093256033639256e-01 -1.9147004040334199e-06 0.0000000000000000e+00  3.5785312043200693e-02 2.6528146646083550e-08 0.0000000000000000e+00  1.7489805104185899e-01 -3.1328177333881158e-02 0.0000000000000000e+00  1.5916682371777166e-01 4.0733092916629410e-02 0.0000000000000000e+00  2.0378528570864349e-01 1.1439872381252983e-05 0.0000000000000000e+00  2.0002963168042465e-01 4.1746835321590398e-05 0.0000000000000000e+00  1.1260560842993272e-01 2.1880708803127778e-03 0.0000000000000000e+00  1.9929801155173402e-01 -1.7113869063927517e-04 0.0000000000000000e+00  3.8116981250936666e-01 3.5752759188117857e-02 0.0000000000000000e+00  1.4484778426512182e-01 5.7988854473009914e-05 0.0000000000000000e+00  1.2603033764958013e-01 1.6100694744347777e-05 0.0000000000000000e+00  1.3852967010721531e-01 2.2154348846791753e-07 0.0000000000000000e+00  -3.3536993733972484e-03 5.2372278641570152e-02 0.0000000000000000e+00  3.3356383907140630e-01 2.9149168259818740e-08 0.0000000000000000e+00  1.3374446691723765e-01 1.0327973119273299e-04 0.0000000000000000e+00  4.1211439348422652e-01 -5.4938377028408997e-03 0.0000000000000000e+00  1.4272406384988107e-01 5.3806629507296542e-06 0.0000000000000000e+00  2.0176045144750943e-01 -1.1850367473825603e-03 0.0000000000000000e+00  1.1852651192547765e-01 1.5980240751476110e-07 0.0000000000000000e+00  2.0337053478536266e-01 9.2014525291516915e-07 0.0000000000000000e+00  1.3856818302035828e-01 1.0922167888598836e-05 0.0000000000000000e+00  2.1733313343340047e-01 1.1616197567512505e-07 0.0000000000000000e+00  1.3858062005970340e-01 -1.6781312227844131e-06 0.0000000000000000e+00  1.9960149045196618e-01 1.3069143552188440e-04 0.0000000000000000e+00  2.0390882673406593e-01 -1.1368365210400351e-06 0.0000000000000000e+00  1.3486319339595298e-01 1.0087101827673663e-04 0.0000000000000000e+00  1.0936846884883050e-01 9.4138480025028121e-05 0.0000000000000000e+00  1.9588179285476268e-01 7.1031246685926953e-05 0.0000000000000000e+00  1.0590933986466437e-01 -1.4980464017899243e-03 0.0000000000000000e+00  2.9821435809855995e-01 -2.5138158749389888e-02 0.0000000000000000e+00  2.3797101452538599e-01 -2.7188181970188553e-02 0.0000000000000000e+00  4.2331051264250558e-01 -9.0948984000399316e-02 0.0000000000000000e+00  1.2748463204903737e-01 2.4230116062972625e-05 0.0000000000000000e+00  3.0744485263333238e-01 -1.0482662343685466e-01 0.0000000000000000e+00  1.8921472982662318e-01 -2.4303752562635277e-02 0.0000000000000000e+00  1.9654857546806556e-01 8.2546604468379585e-06 0.0000000000000000e+00  2.0233622293902073e-01 -2.4434295732992176e-03 0.0000000000000000e+00  1.0873115209381408e-01 9.4609366298473177e-06 0.0000000000000000e+00  1.1034931802129995e-01 1.2818683427631573e-03 0.0000000000000000e+00  2.0546105658552735e-01 -1.68