<?xml version="1.0"?>
<VTKFile type="UnstructuredGrid"  version="0.1"  >
<UnstructuredGrid>
<Piece  NumberOfPoints="1404" NumberOfCells="2604">
<Points>
<DataArray  type="Float64"  NumberOfComponents="3"  format="ascii">0 0.41 0  0 0 0  2.2 0 0  2.2 0.41 0  0.2353553390593274 0.2353553390593274 0  0.25 0.2 0  0.2353553390593274 0.1646446609406726 0  0.2 0.15 0  0.1646446609406726 0.1646446609406726 0  0.15 0.2 0  0.1646446609406726 0.2353553390593274 0  0.2 0.25 0  0.6923879532511287 0.188268343236509 0  0.7 0.15 0  0.6923879532511287 0.1117316567634909 0  0.6707106781186547 0.07928932188134523 0  0.6382683432365089 0.05761204674887133 0  0.6 0.04999999999999999 0  0.5617316567634909 0.05761204674887134 0  0.5292893218813453 0.07928932188134524 0  0.5076120467488713 0.111731656763491 0  0.5 0.15 0  0.5076120467488713 0.188268343236509 0  0.5292893218813453 0.2207106781186547 0  0.561731656763491 0.2423879532511287 0  0.6 0.25 0  0.6382683432365089 0.2423879532511287 0  0.6707106781186547 0.2207106781186547 0  1.1 0 0  0 0.205 0  1.1 0.41 0  0.55 0 0  0.55 0.41 0  0.275 0 0  0.8250000000000001 0 0  0.275 0.41 0  0.8250000000000001 0.41 0  0.6875 0 0  0.61875 0 0  1.65 0.41 0  1.65 0 0  1.375 0 0  1.375 0.41 0  1.925 0 0  1.925 0.41 0  1.5125 0.205 0  1.7875 0.205 0  0.9625000000000001 0.205 0  1.2375 0.205 0  2.2 0.205 0  1.99375 0.2152743902439024 0  0.4125 0.41 0  2.0625 0 0  2.0625 0.41 0  2.2 0.3075 0  1.7875 0.41 0  1.375 0.1486128048780488 0  1.5125 0 0  1.7875 0 0  1.5125 0.41 0  0.9625000000000001 0.41 0  0.4125 0 0  0.1375 0 0  0.1375 0.41 0  0.6875 0.41 0  0.9625000000000001 0 0  1.2375 0 0  1.1 0.1486128048780488 0  1.2375 0.41 0  1.65 0.1486128048780487 0  0.823495464168302 0.2603780552348366 0  0.3738707794507017 0.2720196349488618 0  0.3662291281331582 0.1311456406657909 0  1.676715909090909 0.2793064024390244 0  1.126715909090909 0.2793064024390244 0  1.348284090909091 0.2793064024390244 0  0.8287581077665108 0.1302150898054257 0  1.894702181800738 0.1282910975492754 0  2.092797818199262 0.1282910975492754 0  1.85625 0.3075 0  0 0.3075 0  0 0.1025 0  2.099172119769978 0.25625 0  0.4752414543992246 0.3180372603390748 0  1.99375 0.08395950269330846 0  1.459960956013612 0.3075 0  1.569025960719943 0.2986889805672169 0  1.03125 0.3278689922742084 0  1.959375 0.3126371951219512 0  1.749222215368287 0.1025 0  1.275777784631713 0.1025 0  0.9228016959331474 0.3075 0  1.000777784631713 0.1025 0  2.2 0.1025 0  1.225938124459196 0.3075 0  1.550777784631713 0.1025 0  1.44375 0.07430640243902442 0  1.16875 0.07430640243902439 0  0.7562500000000001 0.3358727844323386 0  0.89375 0 0  1.899250267340833 0.2229966846119207 0  0.61875 0.41 0  1.766482954545455 0.2934032012195123 0  1.046078563095834 0.2389031808701145 0  1.421109702350723 0.2261157654379721 0  0.07567171807980319 0.25625 0  0.2511897295290552 0.3235829392832554 0  0.07655002503762308 0.1488653460959645 0  0.1377245246847496 0.3206030474919778 0  0.6694099692696568 0.3242771941727899 0  0.9168971191497528 0.1295727156104653 0  0.7562500000000001 0 0  2.118919042110979 0.3422084711244843 0  2.13125 0 0  0.06875000000000001 0 0  1.30625 0.41 0  1.597888256393107 0.2173787389261347 0  0.34375 0.41 0  0.2493272016354703 0.08091360081773515 0  0.5588896233436766 0.3264056208677571 0  1.829299675393195 0.07400700849299596 0  0.1334079128307869 0.08523463035786674 0  1.71875 0.41 0  0.06875000000000001 0.41 0  1.16875 0.41 0  2.038220665644273 0.332420740103091 0  0.8810647413215221 0.2027360103977071 0  0.34375 0 0  0.7453891198966415 0.2471459041008237 0  0.42112093004955 0.1988123139090554 0  0.8314023090855964 0.3351170841770613 0  0.89375 0.41 0  0.7906250000000001 0.06615386481594063 0  1.452769549894695 0.1548122580621249 0  1.369219062229598 0.07430640243902442 0  1.30625 0 0  1.07420695807087 0.07430640243902439 0  1.720943423819132 0.1714577452753128 0  1.157188124459196 0.205 0  1.304056576180868 0.1714577452753128 0  1.67579304192913 0.07430640243902437 0  1.209670467133757 0.136210026696477 0  0.4312800784902823 0.08036147352247747 0  0.8723959680194693 0.07066860609690805 0  1.025335513626278 0.1700681449722324 0  0.7945632284247136 0.1940204203251442 0  0.378125 0.3452261501101892 0  0.3307109909790086 0.2037165635083759 0  0.3009701032039409 0.2702970083403109 0  0.20625 0.41 0  1.58125 0 0  0.4812500000000001 0 0  0.9838963872396855 0.2722244191167347 0  0.06772484939107212 0.3260067317374387 0  0.20625 0 0  1.58125 0.41 0  1.631724228912893 0.3381867502687533 0  1.825608881788174 0.14499488549201 0  1.85625 0 0  1.44375 0 0  1.44375 0.41 0  1.85625 0.41 0  2.13125 0.41 0  0.7562500000000001 0.41 0  0.4812500000000001 0.41 0  1.16875 0 0  1.03125 0.41 0  1.03125 0 0  1.71875 0 0  1.99375 0 0  1.99375 0.41 0  0.9408708167433545 0.0651989315768642 0  1.340625 0.3489494290853124 0  1.134375 0.3489494290853123 0  1.700180620188976 0.3438659752031281 0  0.29668452290037 0.1318471691375986 0  0.3175441051360096 0.06496934809856265 0  0.06509151636162461 0.08140814015999148 0  2.135782184673599 0.07126652247502523 0  1.668441847249787 0.2129203728327609 0  1.295782514339747 0.2378437748815763 0  1.409375 0.3520314716057996 0  2.129248544730567 0.1906135162504124 0  2.060771381434487 0.1989445750470348 0  2.013252586573865 0.1496169464686054 0  1.942766402200229 0.1734448904596831 0  1.895522487186454 0.06076163953489683 0  2.069553871656643 0.06605731020975725 0  0.4670911801404742 0.2498408582391372 0  0.7622743084658112 0.1264100838268133 0  1.274680914880868 0.3520219391081363 0  0.3148669572599245 0.3331753056385887 0  1.614713220494657 0.09473434380863296 0  1.72990325744076 0.2380068107952482 0  1.356580098625191 0.2120393231351682 0  2.034370752044885 0.2668681600792073 0  1.51768709249349 0.3426260931494756 0  1.561883724969884 0.1650446847858835 0  1.197344062229598 0.2523725417393646 0  1.804085235518364 0.3468178408964637 0  1.817887819205233 0.2589243285818559 0  1.905897727272727 0.3485060975609756 0  0.7296439733931823 0.06337466644369745 0  0.4250935971865949 0.1394919578475796 0  0.3773030136511669 0.05130372097998036 0  1.192836486056382 0.3562350748565544 0  1.1029124365364 0.226143510831178 0  1.28257088594801 0.2944411014911587 0  0.1905185804731426 0.06029880676029167 0  1.474860187679412 0.2504218616229368 0  1.406767003493824 0.2829282258560709 0  0.5209826960981064 0.2830664557824064 0  0.5131119502780163 0.3617405848213254 0  0.1948220106098172 0.3081993407644811 0  1.845656689180403 0.1998310418452388 0  2.144958525570388 0.2909790873294231 0  2.2 0.15375 0  0.8833025251326762 0.2625402923007629 0  0.171875 0.3653875762360952 0  1.57794966442982 0.3540357145964566 0  0.446875 0.366068291212731 0  0.4272051715206439 0.2891929346190664 0  1.508991196088596 0.1421783375065625 0  1.50436820029908 0.06143401634903343 0  1.223857000523521 0.08235548624535324 0  0.6137904613287555 0.3066826366281556 0  1.153316824384777 0.1289850171317838 0  0.9751573703656133 0.327632618473408 0  2.148922302309752 0.1258841779285271 0  0.9281250000000001 0.3643758685795699 0  1.621993280276081 0.2841214267927899 0  1.550118654119087 0.2461998729100966 0  1.327182649291491 0.1216967252533594 0  0.9939955742738924 0.04663549843168518 0  1.753125 0.04556020050186112 0  1.271875 0.04556020050186116 0  0.9734326767716519 0.1506854560854393 0  0.103125 0.3675775577080512 0  1.94956388244759 0.1180512551534177 0  1.949997712993411 0.04965831614304109 0  0.717433898748555 0.295596016333797 0  1.771961817615021 0.1530278789497521 0  1.909246823951428 0.2812757146784527 0  0 0.35875 0  1.050632804931928 0.1226269704412814 0  0.05695108326502596 0.2024009637347154 0  1.948575539857022 0.2445328248721197 0  1.697271520964565 0.1233917627620729 0  1.065625 0.3689344961371042 0  1.085849084308977 0.3170853572226867 0  0.1015495998772944 0.04226029099983852 0  1.577403511714593 0.05463601888079143 0  1.751571320346033 0.3651102912045228 0  2.2 0.35875 0  0.7441773632462837 0.1786786606458751 0  0 0.05125 0  1.466879772203159 0.3611261772912453 0  0.6282230348858767 0.3577675483994025 0  1.990280163552011 0.3564754268533217 0  1.17471064520912 0.2990917256188288 0  0 0.25625 0  2.2 0.25625 0  2.2 0.05125 0  0 0.15375 0  1.853978576207987 0.35875 0  1.515638456102889 0.2882700110184686 0  2.150453692751374 0.2387066338105111 0  1.323782677156475 0.04897634338873398 0  1.409375 0.03715320121951221 0  1.406484531114799 0.1087852750766809 0  1.134375 0.03715320121951219 0  0.721875 0.3729363922161693 0  0.7941695928236929 0.3696489254637395 0  0.7934827162619036 0.3013409431456604 0  1.627401732573545 0.04552157221025036 0  0.9352049974617431 0.2507047965699472 0  0.8763260682738339 0.3611103317460093 0  2.045405893604797 0.1105340662939892 0  1.255408269734577 0.1577307500159216 0  2.028125 0.03707597992059326 0  1.003030137506755 0.3689344961371042 0  1.248258025468107 0.2565907092181813 0  1.203125 0.03661323374043041 0  0.4800125512335631 0.0549472816999725 0  2.072662025974815 0.2975086504196739 0  0.240625 0.3729825336867542 0  1.113252391110535 0.10238286244357 0  1.071052763974265 0.1885202618768825 0  0.8738809401657862 0.3106483608284829 0  0.6786819423003397 0.2677558482644021 0  1.887722846421017 0.1760882698830035 0  1.472640588990488 0.1118278026240017 0  0.5843750000000001 0.41 0  1.865937103925594 0.2604137786483804 0  1.463913572748262 0.2030442564990043 0  1.376426316059077 0.3186741374914345 0  0.1038643885363755 0.2162701735320032 0  0.1769473813227781 0.1070849728467114 0  0.458787839809176 0.171541653775316 0  0.240625 0 0  0.04179569703428024 0.2877217852556549 0  0.1258346557601885 0.2699740073054968 0  1.722140693354707 0.282908100935778 0  0.41206179117512 0.2448172567039922 0  0.3702471778075604 0.2265217604228704 0  0.3714881805374215 0.1786967818665642 0  1.77397096061971 0.2481483237422926 0  2.105123889160691 0.03743885948498647 0  1.001138337938679 0.229719337663998 0  1.051242910646791 0.2854826559431138 0  1.395420985247586 0.18
[...]
<PointData  Vectors="f_37"> 
<DataArray  type="Float64"  Name="f_37"  NumberOfComponents="3" format="ascii">2.4934355707611599e-07 4.5198870679392744e-08 0.0000000000000000e+00  -4.4530908917032574e-06 -3.5340018785704373e-07 0.0000000000000000e+00  -6.4506733183247176e-07 1.8790506734209766e-09 0.0000000000000000e+00  -8.1855480689099687e-07 4.7369391440278099e-10 0.0000000000000000e+00  -5.8606160524210957e-08 3.2706515851526871e-07 0.0000000000000000e+00  1.1249141691391761e-07 -2.8720298289545773e-08 0.0000000000000000e+00  1.2580939362180869e-07 1.8052407040193397e-07 0.0000000000000000e+00  -9.2063184982530532e-07 -1.0024557538799047e-07 0.0000000000000000e+00  -8.6135561716834935e-07 -1.2123065016656732e-07 0.0000000000000000e+00  1.2937371118898122e-07 -4.4609744748219728e-07 0.0000000000000000e+00  -9.2648406317151066e-07 -5.1646344550189096e-07 0.0000000000000000e+00  -1.0544941840066802e-06 -2.5101569602147883e-07 0.0000000000000000e+00  4.1095232911211999e-07 -2.7610203302768128e-08 0.0000000000000000e+00  -3.1450878259675552e-07 -3.8542179346577094e-07 0.0000000000000000e+00  -3.5040106442346016e-07 -1.9770846488743777e-08 0.0000000000000000e+00  -8.4707697286980650e-07 -2.0846616623157272e-07 0.0000000000000000e+00  2.4075227843206658e-06 3.8726536605559816e-07 0.0000000000000000e+00  3.4773000334881937e-01 9.6730060413394284e-02 0.0000000000000000e+00  1.5966660389788086e-06 -1.1076004517792603e-07 0.0000000000000000e+00  -1.2520192581356926e-06 3.7043880319804173e-07 0.0000000000000000e+00  -1.3213306485982110e-06 -3.5876602324267452e-07 0.0000000000000000e+00  -3.3313863950464209e-08 -4.7308774861350347e-07 0.0000000000000000e+00  5.3979422187182762e-07 1.2306728789018664e-07 0.0000000000000000e+00  -3.9694296031738054e-07 -1.8428623815499505e-06 0.0000000000000000e+00  -3.1401837998218187e-06 -1.6420049051099644e-06 0.0000000000000000e+00  -4.5834428927598845e-06 -4.1871066145732943e-07 0.0000000000000000e+00  -4.5040892479806061e-06 -9.3421355382032046e-08 0.0000000000000000e+00  -3.1490890522839751e-07 9.4380937716866429e-08 0.0000000000000000e+00  8.9288901580862892e-07 -1.6945722871171069e-07 0.0000000000000000e+00  1.6583342601553369e-01 -4.2815274055676213e-07 0.0000000000000000e+00  -1.0896129712839043e-06 -8.9050078893795385e-08 0.0000000000000000e+00  3.0207894765549327e-06 5.4669868165325482e-08 0.0000000000000000e+00  -5.4831717004177305e-07 -9.3142838835304225e-08 0.0000000000000000e+00  4.1091982432966070e-07 4.6215192980314219e-08 0.0000000000000000e+00  -2.9267067411348457e-07 -3.6255978576443663e-08 0.0000000000000000e+00  -1.0319560500879744e-06 4.0100098744856122e-09 0.0000000000000000e+00  -1.4684211883207108e-06 8.3145814153507777e-08 0.0000000000000000e+00  -2.5484508141368529e-06 -4.7302912255562014e-07 0.0000000000000000e+00  -8.7256030597002152e-06 -1.1756784189630359e-06 0.0000000000000000e+00  -1.5788248688669825e-06 -1.5120247396558633e-07 0.0000000000000000e+00  -8.8184610158802003e-07 -9.3304616470932886e-08 0.0000000000000000e+00  -2.5608599780777117e-06 4.5900710760906737e-07 0.0000000000000000e+00  1.3530953778600396e-06 3.9931415864741178e-07 0.0000000000000000e+00  -5.0846250686800085e-07 -6.5318337228287211e-10 0.0000000000000000e+00  -3.8450034772982588e-08 7.1875313212116366e-10 0.0000000000000000e+00  2.4688174409589339e-01 1.2546570366282157e-02 0.0000000000000000e+00  2.2955844976628029e-01 4.5239313773760515e-03 0.0000000000000000e+00  1.5686250009803204e-01 -8.8353243141380995e-03 0.0000000000000000e+00  2.9871177792732279e-01 -8.3997404495066069e-02 0.0000000000000000e+00  2.2970837084034473e-01 -1.0798503578978765e-04 0.0000000000000000e+00  2.2936718590458668e-01 -2.1590199806892479e-04 0.0000000000000000e+00  2.6342788170014887e-07 -9.0873221561161224e-10 0.0000000000000000e+00  1.4733119796921166e-07 6.2946236188080231e-10 0.0000000000000000e+00  -5.2279766303735562e-07 2.5931685972366919e-09 0.0000000000000000e+00  1.8559831183063921e-01 -7.2556791755568119e-05 0.0000000000000000e+00  -8.8504501345131177e-07 -2.8168537303287479e-08 0.0000000000000000e+00  2.4848257481770783e-01 -6.9067850921028781e-02 0.0000000000000000e+00  -1.9146134688035115e-06 1.7107188966603988e-07 0.0000000000000000e+00  -8.8721847596246750e-07 -2.9308958598506758e-08 0.0000000000000000e+00  -3.2585160721105819e-07 -6.0477414575474104e-08 0.0000000000000000e+00  -3.2703979750067371e-07 -3.9027674999265301e-08 0.0000000000000000e+00  -3.6654851327333712e-07 -9.0983432262457454e-08 0.0000000000000000e+00  -8.5684400384182185e-07 -6.8651020154929635e-08 0.0000000000000000e+00  -3.7292443756074643e-07 -5.9404072227523820e-08 0.0000000000000000e+00  -2.3742978911805484e-06 5.7919857278300102e-08 0.0000000000000000e+00  -5.4101921642807481e-07 1.0638430215251780e-07 0.0000000000000000e+00  2.1152585483071743e-06 -6.3623362392940080e-07 0.0000000000000000e+00  1.3016749767908012e-01 8.7217111108988505e-04 0.0000000000000000e+00  -3.4134897475039819e-07 -3.8941066544441007e-08 0.0000000000000000e+00  2.2769539909057643e-01 1.5225143568598318e-02 0.0000000000000000e+00  2.6494340221850798e-01 -3.8755762279080681e-02 0.0000000000000000e+00  1.0590187471965531e-01 5.1856714542202658e-03 0.0000000000000000e+00  3.0498809853788678e-01 1.0656209989890851e-01 0.0000000000000000e+00  1.9969372076319411e-01 1.2433819507508787e-02 0.0000000000000000e+00  3.5079751869758474e-01 -5.4870413591729908e-02 0.0000000000000000e+00  2.2201108204360945e-01 -4.1142962546417049e-02 0.0000000000000000e+00  6.8803584580514388e-02 4.5840150705614882e-02 0.0000000000000000e+00  2.0669452676258360e-01 3.0010195212435542e-04 0.0000000000000000e+00  2.0663363160279152e-01 -1.7839155723229594e-04 0.0000000000000000e+00  1.8552902975756355e-01 5.3217244279207810e-04 0.0000000000000000e+00  7.5234905218065237e-02 4.5126906044633396e-08 0.0000000000000000e+00  2.7319254345658311e-01 2.2740943204785878e-08 0.0000000000000000e+00  2.2031636006656233e-01 -2.0074322027880797e-04 0.0000000000000000e+00  2.4071550732438632e-01 7.2520613871893153e-02 0.0000000000000000e+00  1.6381405776225630e-01 -1.5401373301086982e-04 0.0000000000000000e+00  1.4116127626515254e-01 8.2053878103449576e-03 0.0000000000000000e+00  1.6634386683255209e-01 2.1021361583282171e-02 0.0000000000000000e+00  3.2191589827026235e-01 -2.7312203800906463e-02 0.0000000000000000e+00  1.8056430188133524e-01 -1.5998466876195218e-04 0.0000000000000000e+00  1.8849948802322658e-01 3.9432023162824193e-03 0.0000000000000000e+00  1.1530126720126656e-01 -4.9896564005284832e-02 0.0000000000000000e+00  3.9071337863206351e-01 -3.7001438516046439e-02 0.0000000000000000e+00  5.4998269841852944e-02 1.6618683318812760e-02 0.0000000000000000e+00  1.8532258236730625e-01 -6.2303984878671039e-05 0.0000000000000000e+00  2.5313716883063903e-01 -4.6749745908293151e-02 0.0000000000000000e+00  2.0971953663138351e-01 6.9577867166359811e-03 0.0000000000000000e+00  1.6294915331125362e-01 -1.8271532554595380e-02 0.0000000000000000e+00  1.7874368027996534e-02 -1.3413202206544752e-03 0.0000000000000000e+00  4.2627908688689820e-01 -3.6142397452814876e-02 0.0000000000000000e+00  -5.1870685442572997e-07 3.3528871671354493e-08 0.0000000000000000e+00  2.2856002735759826e-01 4.4755743047876300e-04 0.0000000000000000e+00  -9.4926308755546821e-07 -3.8988020639347943e-09 0.0000000000000000e+00  1.9593925688385605e-01 3.5952061113876566e-03 0.0000000000000000e+00  2.8534595411705393e-01 -3.3822666323389851e-02 0.0000000000000000e+00  2.5930898523666873e-01 -2.8746662351846895e-02 0.0000000000000000e+00  1.2569809562070525e-01 7.1183361433829556e-02 0.0000000000000000e+00  2.3110107464821597e-01 1.4836341717976822e-02 0.0000000000000000e+00  2.0878548444107761e-01 2.4393929609813857e-02 0.0000000000000000e+00  1.4757156628319520e-01 7.3969605547884051e-02 0.0000000000000000e+00  4.5647827119775031e-01 -1.3750851335774352e-02 0.0000000000000000e+00  7.6477613744789091e-02 2.2262498414820028e-02 0.0000000000000000e+00  -2.1566801968577440e-07 -9.6076676483412552e-08 0.0000000000000000e+00  1.4158899243915540e-01 -8.0556364921654817e-05 0.0000000000000000e+00  -1.6091048656893988e-06 1.1771519553118921e-09 0.0000000000000000e+00  -1.2979479519328868e-06 9.0689113330961563e-09 0.0000000000000000e+00  3.6593531457561998e-07 1.6066277221544384e-07 0.0000000000000000e+00  2.2915490255570450e-01 2.4872915445025214e-02 0.0000000000000000e+00  -1.9022260047723895e-06 -1.7407705747255220e-08 0.0000000000000000e+00  4.0384608079397843e-01 4.2394788596068864e-02 0.0000000000000000e+00  3.7436948640379142e-01 7.7341614172227069e-02 0.0000000000000000e+00  1.5069664031308019e-01 6.4122541423252018e-04 0.0000000000000000e+00  3.4359197337292791e-01 1.3135056686399511e-02 0.0000000000000000e+00  -1.3326353222174138e-06 -9.1693558824251505e-08 0.0000000000000000e+00  -8.1836707230839735e-08 -1.0944066325267204e-08 0.0000000000000000e+00  -6.9880541982758925e-07 -4.2220278728414095e-08 0.0000000000000000e+00  1.5609468470425020e-01 -1.4657776038372834e-04 0.0000000000000000e+00  1.0083622096044484e-01 -1.9238153277370169e-03 0.0000000000000000e+00  -3.0111563721510072e-07 -9.7550725257712824e-08 0.0000000000000000e+00  1.4646539443265411e-01 -2.4932036351838861e-02 0.0000000000000000e+00  1.5535691571944571e-01 1.4955718339695706e-01 0.0000000000000000e+00  3.9527697189779465e-01 -3.4582477197189793e-02 0.0000000000000000e+00  1.9004804554765475e-06 -7.7000906613463300e-08 0.0000000000000000e+00  1.1618859770733710e-01 4.7361773208809431e-02 0.0000000000000000e+00  2.5683256164508056e-01 -2.7217592079557748e-02 0.0000000000000000e+00  1.2452667414378590e-01 -3.6675547349208866e-02 0.0000000000000000e+00  -2.5950749150597273e-07 -1.2446896523150785e-07 0.0000000000000000e+00  1.8797883005774535e-02 1.3510632225913926e-02 0.0000000000000000e+00  2.2845063448505662e-01 9.7483847361493105e-03 0.0000000000000000e+00  2.6631452887384682e-01 -4.9628852993556252e-02 0.0000000000000000e+00  2.6645926775519113e-01 -8.8588255684260070e-02 0.0000000000000000e+00  1.5932858703419420e-01 5.2649447747457803e-03 0.0000000000000000e+00  1.5320475392047175e-01 -3.9843865969257701e-02 0.0000000000000000e+00  2.3877713473360002e-01 2.5028910645966629e-02 0.0000000000000000e+00  6.5563287059836564e-02 1.7679910276885931e-02 0.0000000000000000e+00  1.3265104351657145e-01 4.4038781435023393e-03 0.0000000000000000e+00  2.3667244981922346e-02 9.1326961396985002e-03 0.0000000000000000e+00  2.1186777069447663e-01 7.7431167101056726e-03 0.0000000000000000e+00  3.5776080904860279e-02 1.5548791588806735e-02 0.0000000000000000e+00  1.0129365535356691e-01 -2.0199920522129929e-02 0.0000000000000000e+00  -9.3123657188967425e-07 -1.0940444792266697e-07 0.0000000000000000e+00  -3.6038659947670025e-07 -2.9935245985193681e-08 0.0000000000000000e+00  -6.6626363249455954e-07 3.8050332658690208e-07 0.0000000000000000e+00  3.4747319351604100e-01 -3.7939547121357865e-02 0.0000000000000000e+00  7.8045809127264304e-02 3.1226538191054823e-02 0.0000000000000000e+00  -2.2528076778866581e-06 -1.0495793654291499e-07 0.0000000000000000e+00  -1.4177506381217115e-06 -1.9168280885394143e-07 0.0000000000000000e+00  1.3304831814638030e-01 8.3347783695422503e-03 0.0000000000000000e+00  2.1696490171585109e-01 1.9743627266019391e-03 0.0000000000000000e+00  -6.9652230007774706e-07 -8.0568101723563019e-09 0.0000000000000000e+00  -2.6828544439367204e-06 5.0745529727681784e-07 0.0000000000000000e+00  7.7807372235571909e-07 2.1622205274340587e-07 0.0000000000000000e+00  -1.4250820076544306e-07 -4.4854435621250997e-09 0.0000000000000000e+00  -8.5256610617665791e-08 1.3893961937695131e-09 0.0000000000000000e+00  3.8574004038505996e-07 -1.9500929664393606e-08 0.0000000000000000e+00  -2.2412471648180083e-06 -2.6753116279542608e-07 0.0000000000000000e+00  2.3354717348738611e-06 -5.2531350718592463e-07 0.0000000000000000e+00  -7.2511484826904588e-08 -8.1352688214468379e-08 0.0000000000000000e+00  -8.2269241681667149e-08 1.3342373330613171e-07 0.0000000000000000e+00  3.8566079055027716e-07 -5.0542978338601782e-08 0.0000000000000000e+00  -8.9503544374992542e-07 2.0947067006481286e-09 0.0000000000000000e+00  -2.7556363018305838e-07 1.3837283452271298e-09 0.0000000000000000e+00  4.0119023468280890e-02 8.3938590571431774e-03 0.0000000000000000e+00  9.2177516593801759e-02 -1.0359457011542407e-02 0.0000000000000000e+00  1.9990616237765987e-01 -1.9093795607916554e-02 0.0000000000000000e+00  1.3361260653163629e-01 3.6936954425875273e-03 0.0000000000000000e+00  2.9159051516784390e-01 7.5795319080222717e-02 0.0000000000000000e+00  3.3737935606460556e-01 5.3545636824891212e-02 0.0000000000000000e+00  3.1541067546461954e-01 2.6273381204406674e-02 0.0000000000000000e+00  1.4644172687002885e-01 -6.6139519243664963e-05 0.0000000000000000e+00  2.2854255373464979e-01 1.7124556161458797e-02 0.0000000000000000e+00  3.0827316578013730e-01 -8.4221011428293927e-02 0.0000000000000000e+00  7.4673652253790065e-02 -1.4828092711206518e-03 0.0000000000000000e+00  2.2897098027750731e-01 -1.8055241751964329e-04 0.0000000000000000e+00  2.2955526443033020e-01 -2.4979233726021605e-04 0.0000000000000000e+00  2.1825796846960110e-01 -2.4171674113560726e-04 0.0000000000000000e+00  2.2614706492015305e-01 -1.8839544340136168e-05 0.0000000000000000e+00  1.2953892931491823e-01 2.6593168031568400e-05 0.0000000000000000e+00  1.3835346017318648e-01 -9.2745402559445367e-05 0.0000000000000000e+00  1.9856520166336875e-01 1.9052171163194737e-01 0.0000000000000000e+00  4.0061054560690292e-02 4.5012303140052251e-02 0.0000000000000000e+00  1.1211817916479512e-01 -1.3323788121608898e-02 0.0000000000000000e+00  2.1973520569473812e-01 -4.8423209708821644e-03 0.0000000000000000e+00  1.9400779822555508e-01 1.0019993161378155e-02 0.0000000000000000e+00  2.2322267449885475e-01 8.9461014771814226e-03 0.0000000000000000e+00  2.9265818689953788e-01 -7.2662423234455278e-02 0.0000000000000000e+00  2.1567726170426976e-01 -2.3704577696135877e-04 0.0000000000000000e+00  1.0102697956382804e-01 1.0929573523972414e-02 0.0000000000000000e+00  2.4289608395560863e-01 1.6491983158806296e-02 0.0000000000000000e+00  3.3700305299583716e-01 -7.5480345393317175e-02 0.0000000000000000e+00  1.3388007147697092e-01 7.2689324374012351e-04 0.0000000000000000e+00  2.1826838436386053e-01 2.2444042139098557e-03 0.0000000000000000e+00  1.3190706094599519e-01 -2.4184852139324473e-05 0.0000000000000000e+00  1.6290246684542237e-01 7.6420699462656741e-02 0.0000000000000000e+00  2.4652800554376636e-01 1.3038670590940069e-01 0.0000000000000000e+00  2.1989227385045107e-01 3.1079389996933503e-02 0.0000000000000000e+00  1.4320368037590595e-01 -1.4128826743614072e-02 0.0000000000000000e+00  2.8171613748657587e-01 -4.0177889418291327e-02 0.0000000000000000e+00  2.3768116080308835e-01 -4.9735173222375875e-02 0.0000000000000000e+00  3.9251333693174600e-01 1.7992976061979752e-02 0.0000000000000000e+00  2.1703519022940931e-01 7.5521681469562472e-03 0.0000000000000000e+00  1.8823603317604137e-01 -1.4777359154187028e-02 0.0000000000000000e+00  3.4037107163665520e-01 1.8347166085969657e-01 0.0000000000000000e+00  2.7775331742839260e-01 3.6362215999289203e-02 0.0000000000000000e+00  2.3155379756203245e-01 7.2378817651617661e-02 0.0000000000000000e+00  2.2960056702669052e-01 1.7295451165249018e-03 0.0000000000000000e+00  2.0032748888879276e-01 -1.3006043658730373e-04 0.0000000000000000e+00  2.2010950480655284e-01 -9.1708092947012049e-05 0.0000000000000000e+00  2.9800259036714527e-01 -3.8033877460890445e-02 0.0000000000000000e+00  1.2559267565445337e-01 2.5518595472866737e-02 0.0000000000000000e+00  9.8781827679750078e-02 7.9178601374505393e-03 0.0000000000000000e+00  2.1017407054230697e-01 2.1545310414310400e-02 0.0000000000000000e+00  1.5821247170690747e-01 4.9447416457418188e-02 0.0000000000000000e+00  2.4329252142070312e-01 -1.0878067207641270e-03 0.0000000000000000e+00  1.5478386759513874e-01 -1.5026177553970031e-03 0.0000000000000000e+00  4.8010336605047402e-02 -2.1514784086126601e-02 0.0000000000000000e+00  4.6268218420047180e-01 4.2685223850233905e-02 0.0000000000000000e+00  1.1356356356072908e-01 -1.0073849815468612e-02 0.0000000000000000e+00  3.4716299308172499e-01 -2.7413798265506953e-02 0.0000000000000000e+00  2.0506060103915150e-01 -1.1676506310305792e-04 0.0000000000000000e+00  2.3725872921088717e-01 -1.1985743968483047e-02 0.0000000000000000e+00  1.8907709139210677e-01 1.8817396758541140e-02 0.0000000000000000e+00  2.1347197040653934e-01 2.5867727175971272e-02 0.0000000000000000e+00  1.8475526574161411e-01 -6.9107360563596162e-02 0.0000000000000000e+00  1.8372184574968968e-02 5.8000160869939657e-03 0.0000000000000000e+00  1.0441829778305631e-01 1.0514007071688223e-03 0.0000000000000000e+00  1.6555443669305472e-02 -1.4829823451595706e-02 0.0000000000000000e+00  9.4147097890308160e-02 1.4015995406660669e-02 0.0000000000000000e+00  6.2769602802573335e-02 1.7617836520807686e-02 0.0000000000000000e+00  1.9902504951279765e-01 -1.1134682857585857e-04 0.0000000000000000e+00  1.1007918607267196e-01 -7.5406407261400415e-05 0.0000000000000000e+00  4.0266925469008680e-01 -4.0456981386596924e-02 0.0000000000000000e+00  2.2164353561408978e-01 4.8094180746801494e-03 0.0000000000000000e+00  2.0730861136457959e-01 1.0808315202666391e-04 0.0000000000000000e+00  3.5785430855689970e-02 8.1809297239958340e-08 0.0000000000000000e+00  7.7855202633004189e-02 1.5715526700406532e-02 0.0000000000000000e+00  1.5902924530197926e-01 4.2029032923787638e-02 0.0000000000000000e+00  2.2428130377191893e-01 -6.6624366755035553e-05 0.0000000000000000e+00  2.1014025279236379e-01 8.8748092909156136e-03 0.0000000000000000e+00  1.6052302614595526e-01 -8.5590338920721459e-03 0.0000000000000000e+00  3.2183117550758622e-01 -3.5311171217378749e-02 0.0000000000000000e+00  3.8095930527970290e-01 3.5622618498383336e-02 0.0000000000000000e+00  1.3846542822883007e-01 4.2672517268646263e-03 0.0000000000000000e+00  1.0036218059456868e-01 1.0047640194869021e-03 0.0000000000000000e+00  1.1363245138494371e-01 -3.4765488447171940e-05 0.0000000000000000e+00  -7.8531895825591658e-03 1.4043305175179602e-02 0.0000000000000000e+00  3.3356378914718848e-01 3.5188647724247198e-08 0.0000000000000000e+00  6.4364003434092570e-02 4.1640601579600841e-03 0.0000000000000000e+00  3.9165357291598929e-01 3.2916203868312952e-03 0.0000000000000000e+00  1.1810934214568933e-01 -1.0066118021621830e-04 0.0000000000000000e+00  3.0852149440315063e-01 -5.2905744597982876e-02 0.0000000000000000e+00  1.1852650539423851e-01 -2.6705491810288358e-08 0.0000000000000000e+00  2.2026430834017321e-01 -8.9031111456220103e-05 0.0000000000000000e+00  1.1340183627992899e-01 -1.8998802959150291e-05 0.0000000000000000e+00  2.1733314999481618e-01 -2.3258563698658963e-08 0.0000000000000000e+00  1.1403973643293039e-01 1.4289598170849873e-04 0.0000000000000000e+00  1.6946805937485840e-01 2.0726114672817670e-02 0.0000000000000000e+00  2.2578899607769767e-01 -1.4717834710509416e-04 0.0000000000000000e+00  5.3681299093250624e-02 -2.1562147110794867e-02 0.0000000000000000e+00  8.4804365799829348e-02 -9.6700254370715132e-03 0.0000000000000000e+00  1.9876342792139806e-01 -4.4772152049080673e-02 0.0000000000000000e+00  -1.5730296342484504e-02 4.3218841963898018e-03 0.0000000000000000e+00  3.1229128875123946e-01 -1.6573822918644492e-02 0.0000000000000000e+00  2.8509712627212919e-01 -1.7168284541810963e-02 0.0000000000000000e+00  4.0883838557506136e-01 -4.6355965997981287e-02 0.0000000000000000e+00  1.1414159022046136e-01 3.2136459625833926e-03 0.0000000000000000e+00  2.7464753596093439e-01 -3.2441387886285672e-02 0.0000000000000000e+00  2.7916469229419494e-01 -1.6589694782989977e-02 0.0000000000000000e+00  1.9276644914617011e-01 -1.9107298203646037e-04 0.0000000000000000e+00  2.2256874314857186e-01 -7.2479791139119010e-02 0.0000000000000000e+00  8.5806548686521614e-02 -4.8328846398422414e-05 0.0000000000000000e+00  1.8495923287580260e-01 -8.4255885009883232e-03 0.0000000000000000e+00  