<?xml version="1.0"?>
<VTKFile type="UnstructuredGrid"  version="0.1"  >
<UnstructuredGrid>
<Piece  NumberOfPoints="1404" NumberOfCells="2604">
<Points>
<DataArray  type="Float64"  NumberOfComponents="3"  format="ascii">0 0.41 0  0 0 0  2.2 0 0  2.2 0.41 0  0.2353553390593274 0.2353553390593274 0  0.25 0.2 0  0.2353553390593274 0.1646446609406726 0  0.2 0.15 0  0.1646446609406726 0.1646446609406726 0  0.15 0.2 0  0.1646446609406726 0.2353553390593274 0  0.2 0.25 0  0.6923879532511287 0.188268343236509 0  0.7 0.15 0  0.6923879532511287 0.1117316567634909 0  0.6707106781186547 0.07928932188134523 0  0.6382683432365089 0.05761204674887133 0  0.6 0.04999999999999999 0  0.5617316567634909 0.05761204674887134 0  0.5292893218813453 0.07928932188134524 0  0.5076120467488713 0.111731656763491 0  0.5 0.15 0  0.5076120467488713 0.188268343236509 0  0.5292893218813453 0.2207106781186547 0  0.561731656763491 0.2423879532511287 0  0.6 0.25 0  0.6382683432365089 0.2423879532511287 0  0.6707106781186547 0.2207106781186547 0  1.1 0 0  0 0.205 0  1.1 0.41 0  0.55 0 0  0.55 0.41 0  0.275 0 0  0.8250000000000001 0 0  0.275 0.41 0  0.8250000000000001 0.41 0  0.6875 0 0  0.61875 0 0  1.65 0.41 0  1.65 0 0  1.375 0 0  1.375 0.41 0  1.925 0 0  1.925 0.41 0  1.5125 0.205 0  1.7875 0.205 0  0.9625000000000001 0.205 0  1.2375 0.205 0  2.2 0.205 0  1.99375 0.2152743902439024 0  0.4125 0.41 0  2.0625 0 0  2.0625 0.41 0  2.2 0.3075 0  1.7875 0.41 0  1.375 0.1486128048780488 0  1.5125 0 0  1.7875 0 0  1.5125 0.41 0  0.9625000000000001 0.41 0  0.4125 0 0  0.1375 0 0  0.1375 0.41 0  0.6875 0.41 0  0.9625000000000001 0 0  1.2375 0 0  1.1 0.1486128048780488 0  1.2375 0.41 0  1.65 0.1486128048780487 0  0.823495464168302 0.2603780552348366 0  0.3738707794507017 0.2720196349488618 0  0.3662291281331582 0.1311456406657909 0  1.676715909090909 0.2793064024390244 0  1.126715909090909 0.2793064024390244 0  1.348284090909091 0.2793064024390244 0  0.8287581077665108 0.1302150898054257 0  1.894702181800738 0.1282910975492754 0  2.092797818199262 0.1282910975492754 0  1.85625 0.3075 0  0 0.3075 0  0 0.1025 0  2.099172119769978 0.25625 0  0.4752414543992246 0.3180372603390748 0  1.99375 0.08395950269330846 0  1.459960956013612 0.3075 0  1.569025960719943 0.2986889805672169 0  1.03125 0.3278689922742084 0  1.959375 0.3126371951219512 0  1.749222215368287 0.1025 0  1.275777784631713 0.1025 0  0.9228016959331474 0.3075 0  1.000777784631713 0.1025 0  2.2 0.1025 0  1.225938124459196 0.3075 0  1.550777784631713 0.1025 0  1.44375 0.07430640243902442 0  1.16875 0.07430640243902439 0  0.7562500000000001 0.3358727844323386 0  0.89375 0 0  1.899250267340833 0.2229966846119207 0  0.61875 0.41 0  1.766482954545455 0.2934032012195123 0  1.046078563095834 0.2389031808701145 0  1.421109702350723 0.2261157654379721 0  0.07567171807980319 0.25625 0  0.2511897295290552 0.3235829392832554 0  0.07655002503762308 0.1488653460959645 0  0.1377245246847496 0.3206030474919778 0  0.6694099692696568 0.3242771941727899 0  0.9168971191497528 0.1295727156104653 0  0.7562500000000001 0 0  2.118919042110979 0.3422084711244843 0  2.13125 0 0  0.06875000000000001 0 0  1.30625 0.41 0  1.597888256393107 0.2173787389261347 0  0.34375 0.41 0  0.2493272016354703 0.08091360081773515 0  0.5588896233436766 0.3264056208677571 0  1.829299675393195 0.07400700849299596 0  0.1334079128307869 0.08523463035786674 0  1.71875 0.41 0  0.06875000000000001 0.41 0  1.16875 0.41 0  2.038220665644273 0.332420740103091 0  0.8810647413215221 0.2027360103977071 0  0.34375 0 0  0.7453891198966415 0.2471459041008237 0  0.42112093004955 0.1988123139090554 0  0.8314023090855964 0.3351170841770613 0  0.89375 0.41 0  0.7906250000000001 0.06615386481594063 0  1.452769549894695 0.1548122580621249 0  1.369219062229598 0.07430640243902442 0  1.30625 0 0  1.07420695807087 0.07430640243902439 0  1.720943423819132 0.1714577452753128 0  1.157188124459196 0.205 0  1.304056576180868 0.1714577452753128 0  1.67579304192913 0.07430640243902437 0  1.209670467133757 0.136210026696477 0  0.4312800784902823 0.08036147352247747 0  0.8723959680194693 0.07066860609690805 0  1.025335513626278 0.1700681449722324 0  0.7945632284247136 0.1940204203251442 0  0.378125 0.3452261501101892 0  0.3307109909790086 0.2037165635083759 0  0.3009701032039409 0.2702970083403109 0  0.20625 0.41 0  1.58125 0 0  0.4812500000000001 0 0  0.9838963872396855 0.2722244191167347 0  0.06772484939107212 0.3260067317374387 0  0.20625 0 0  1.58125 0.41 0  1.631724228912893 0.3381867502687533 0  1.825608881788174 0.14499488549201 0  1.85625 0 0  1.44375 0 0  1.44375 0.41 0  1.85625 0.41 0  2.13125 0.41 0  0.7562500000000001 0.41 0  0.4812500000000001 0.41 0  1.16875 0 0  1.03125 0.41 0  1.03125 0 0  1.71875 0 0  1.99375 0 0  1.99375 0.41 0  0.9408708167433545 0.0651989315768642 0  1.340625 0.3489494290853124 0  1.134375 0.3489494290853123 0  1.700180620188976 0.3438659752031281 0  0.29668452290037 0.1318471691375986 0  0.3175441051360096 0.06496934809856265 0  0.06509151636162461 0.08140814015999148 0  2.135782184673599 0.07126652247502523 0  1.668441847249787 0.2129203728327609 0  1.295782514339747 0.2378437748815763 0  1.409375 0.3520314716057996 0  2.129248544730567 0.1906135162504124 0  2.060771381434487 0.1989445750470348 0  2.013252586573865 0.1496169464686054 0  1.942766402200229 0.1734448904596831 0  1.895522487186454 0.06076163953489683 0  2.069553871656643 0.06605731020975725 0  0.4670911801404742 0.2498408582391372 0  0.7622743084658112 0.1264100838268133 0  1.274680914880868 0.3520219391081363 0  0.3148669572599245 0.3331753056385887 0  1.614713220494657 0.09473434380863296 0  1.72990325744076 0.2380068107952482 0  1.356580098625191 0.2120393231351682 0  2.034370752044885 0.2668681600792073 0  1.51768709249349 0.3426260931494756 0  1.561883724969884 0.1650446847858835 0  1.197344062229598 0.2523725417393646 0  1.804085235518364 0.3468178408964637 0  1.817887819205233 0.2589243285818559 0  1.905897727272727 0.3485060975609756 0  0.7296439733931823 0.06337466644369745 0  0.4250935971865949 0.1394919578475796 0  0.3773030136511669 0.05130372097998036 0  1.192836486056382 0.3562350748565544 0  1.1029124365364 0.226143510831178 0  1.28257088594801 0.2944411014911587 0  0.1905185804731426 0.06029880676029167 0  1.474860187679412 0.2504218616229368 0  1.406767003493824 0.2829282258560709 0  0.5209826960981064 0.2830664557824064 0  0.5131119502780163 0.3617405848213254 0  0.1948220106098172 0.3081993407644811 0  1.845656689180403 0.1998310418452388 0  2.144958525570388 0.2909790873294231 0  2.2 0.15375 0  0.8833025251326762 0.2625402923007629 0  0.171875 0.3653875762360952 0  1.57794966442982 0.3540357145964566 0  0.446875 0.366068291212731 0  0.4272051715206439 0.2891929346190664 0  1.508991196088596 0.1421783375065625 0  1.50436820029908 0.06143401634903343 0  1.223857000523521 0.08235548624535324 0  0.6137904613287555 0.3066826366281556 0  1.153316824384777 0.1289850171317838 0  0.9751573703656133 0.327632618473408 0  2.148922302309752 0.1258841779285271 0  0.9281250000000001 0.3643758685795699 0  1.621993280276081 0.2841214267927899 0  1.550118654119087 0.2461998729100966 0  1.327182649291491 0.1216967252533594 0  0.9939955742738924 0.04663549843168518 0  1.753125 0.04556020050186112 0  1.271875 0.04556020050186116 0  0.9734326767716519 0.1506854560854393 0  0.103125 0.3675775577080512 0  1.94956388244759 0.1180512551534177 0  1.949997712993411 0.04965831614304109 0  0.717433898748555 0.295596016333797 0  1.771961817615021 0.1530278789497521 0  1.909246823951428 0.2812757146784527 0  0 0.35875 0  1.050632804931928 0.1226269704412814 0  0.05695108326502596 0.2024009637347154 0  1.948575539857022 0.2445328248721197 0  1.697271520964565 0.1233917627620729 0  1.065625 0.3689344961371042 0  1.085849084308977 0.3170853572226867 0  0.1015495998772944 0.04226029099983852 0  1.577403511714593 0.05463601888079143 0  1.751571320346033 0.3651102912045228 0  2.2 0.35875 0  0.7441773632462837 0.1786786606458751 0  0 0.05125 0  1.466879772203159 0.3611261772912453 0  0.6282230348858767 0.3577675483994025 0  1.990280163552011 0.3564754268533217 0  1.17471064520912 0.2990917256188288 0  0 0.25625 0  2.2 0.25625 0  2.2 0.05125 0  0 0.15375 0  1.853978576207987 0.35875 0  1.515638456102889 0.2882700110184686 0  2.150453692751374 0.2387066338105111 0  1.323782677156475 0.04897634338873398 0  1.409375 0.03715320121951221 0  1.406484531114799 0.1087852750766809 0  1.134375 0.03715320121951219 0  0.721875 0.3729363922161693 0  0.7941695928236929 0.3696489254637395 0  0.7934827162619036 0.3013409431456604 0  1.627401732573545 0.04552157221025036 0  0.9352049974617431 0.2507047965699472 0  0.8763260682738339 0.3611103317460093 0  2.045405893604797 0.1105340662939892 0  1.255408269734577 0.1577307500159216 0  2.028125 0.03707597992059326 0  1.003030137506755 0.3689344961371042 0  1.248258025468107 0.2565907092181813 0  1.203125 0.03661323374043041 0  0.4800125512335631 0.0549472816999725 0  2.072662025974815 0.2975086504196739 0  0.240625 0.3729825336867542 0  1.113252391110535 0.10238286244357 0  1.071052763974265 0.1885202618768825 0  0.8738809401657862 0.3106483608284829 0  0.6786819423003397 0.2677558482644021 0  1.887722846421017 0.1760882698830035 0  1.472640588990488 0.1118278026240017 0  0.5843750000000001 0.41 0  1.865937103925594 0.2604137786483804 0  1.463913572748262 0.2030442564990043 0  1.376426316059077 0.3186741374914345 0  0.1038643885363755 0.2162701735320032 0  0.1769473813227781 0.1070849728467114 0  0.458787839809176 0.171541653775316 0  0.240625 0 0  0.04179569703428024 0.2877217852556549 0  0.1258346557601885 0.2699740073054968 0  1.722140693354707 0.282908100935778 0  0.41206179117512 0.2448172567039922 0  0.3702471778075604 0.2265217604228704 0  0.3714881805374215 0.1786967818665642 0  1.77397096061971 0.2481483237422926 0  2.105123889160691 0.03743885948498647 0  1.001138337938679 0.229719337663998 0  1.051242910646791 0.2854826559431138 0  1.395420985247586 0.18
[...]
<PointData  Vectors="f_37"> 
<DataArray  type="Float64"  Name="f_37"  NumberOfComponents="3" format="ascii">2.5421002247829782e-07 5.2135991480263404e-08 0.0000000000000000e+00  -4.4456921728147301e-06 -3.6144227118658957e-07 0.0000000000000000e+00  -6.6766277925324449e-07 4.1020179709024273e-10 0.0000000000000000e+00  -8.9025799746426349e-07 2.9760262592745386e-11 0.0000000000000000e+00  -5.5740494707631170e-08 2.0083877895360981e-07 0.0000000000000000e+00  2.1214776465882754e-07 -3.1406224354393013e-07 0.0000000000000000e+00  2.1924570982208182e-07 6.3626545609751062e-08 0.0000000000000000e+00  -8.5509894185649721e-07 -1.8480883756141033e-07 0.0000000000000000e+00  -8.9018037079644752e-07 -1.9407076006770670e-07 0.0000000000000000e+00  1.4234712470643646e-07 -5.0819365717173840e-07 0.0000000000000000e+00  -1.0184917354467722e-06 -5.8723237635533370e-07 0.0000000000000000e+00  -1.2166957702879040e-06 -2.4916318886092171e-07 0.0000000000000000e+00  4.9771470442038562e-07 4.5293145710343724e-07 0.0000000000000000e+00  -4.9332060548039272e-07 -5.8990002045283845e-07 0.0000000000000000e+00  -4.8822721622008530e-07 -3.1787369248791763e-07 0.0000000000000000e+00  -2.0515104785858375e-06 -5.2161783205924244e-07 0.0000000000000000e+00  1.4101901523647010e-06 6.9019001132870993e-07 0.0000000000000000e+00  3.4269706097008756e-01 9.5669775978154473e-02 0.0000000000000000e+00  3.0744326891013713e-06 1.4329272266512078e-06 0.0000000000000000e+00  1.4949335178886104e-06 1.4293807575378255e-07 0.0000000000000000e+00  -1.5416522655416284e-06 1.0626844769361102e-07 0.0000000000000000e+00  -3.3859722402941572e-07 -5.1533789165582551e-07 0.0000000000000000e+00  -4.0264101307601213e-07 -9.0567999730695969e-07 0.0000000000000000e+00  -1.3886077485481299e-06 -1.8202116157586352e-06 0.0000000000000000e+00  -3.1282251771237944e-06 -8.7235179419378414e-07 0.0000000000000000e+00  -3.9176434025011285e-06 -1.6167946293339609e-07 0.0000000000000000e+00  -4.0930787770774894e-06 -3.3393292530943140e-07 0.0000000000000000e+00  -1.7411858487337927e-07 1.4978233195510442e-07 0.0000000000000000e+00  -1.9038516661104202e-06 3.1597069691756250e-07 0.0000000000000000e+00  1.6583343783960419e-01 -4.7467321713144805e-07 0.0000000000000000e+00  1.3195149181613116e-06 5.3826239397353144e-07 0.0000000000000000e+00  3.5463438871995507e-06 1.5015577141747470e-06 0.0000000000000000e+00  -3.5824398552277869e-07 -8.4935078687188203e-09 0.0000000000000000e+00  4.9957333490698233e-07 6.3682084514170110e-08 0.0000000000000000e+00  1.1826906644499082e-07 -9.3160684206289714e-08 0.0000000000000000e+00  -8.9564220216830930e-07 2.2299180155331497e-08 0.0000000000000000e+00  -1.6133926575433573e-06 -1.1652118612563522e-07 0.0000000000000000e+00  -2.7463456323072568e-06 -5.3106644477445252e-07 0.0000000000000000e+00  -9.5981783281379131e-06 -7.6027478746396597e-07 0.0000000000000000e+00  -1.0006446374824264e-06 -6.2913216556681839e-09 0.0000000000000000e+00  -1.2502781610815809e-06 -8.8234582301062503e-09 0.0000000000000000e+00  -4.6710818611993091e-07 3.0643596897730689e-10 0.0000000000000000e+00  -1.0727211460650767e-06 -8.0743581670350160e-08 0.0000000000000000e+00  -5.0436796826514900e-07 -3.9178582555050443e-10 0.0000000000000000e+00  -6.6213254756955963e-08 -1.9873959440004454e-10 0.0000000000000000e+00  2.1779760193909622e-01 3.0594083540296190e-03 0.0000000000000000e+00  2.1779491288495356e-01 2.5819697438021825e-04 0.0000000000000000e+00  2.2059692651527837e-01 -4.0004590401915334e-02 0.0000000000000000e+00  2.5146658658079202e-01 -2.5609129789102219e-02 0.0000000000000000e+00  2.1781746849774491e-01 -2.8117099723673043e-06 0.0000000000000000e+00  2.1764591515092244e-01 2.0165240218910536e-05 0.0000000000000000e+00  3.4424288377529396e-07 -1.3286956363873790e-09 0.0000000000000000e+00  1.7447259820894956e-07 4.4598284375155522e-10 0.0000000000000000e+00  -5.7354098962849530e-07 6.7542921810245207e-10 0.0000000000000000e+00  1.8934255203056416e-01 -7.4414548609089138e-06 0.0000000000000000e+00  -8.3796091447330682e-07 -1.9596399674188149e-09 0.0000000000000000e+00  2.1543689783075368e-01 2.3372395058191475e-03 0.0000000000000000e+00  -1.1691175433774931e-06 -2.2107585125326719e-08 0.0000000000000000e+00  -1.0341351960733750e-06 -1.8658611698768618e-09 0.0000000000000000e+00  -7.5118594679641887e-07 -2.2722411246342442e-08 0.0000000000000000e+00  -3.7719740148197192e-07 -6.3140634797585167e-08 0.0000000000000000e+00  -4.7684455987016033e-07 -8.3133351657950917e-08 0.0000000000000000e+00  -7.8682417268449669e-07 -7.3768122177297491e-08 0.0000000000000000e+00  -4.6036031409619473e-07 -9.2116600886650222e-08 0.0000000000000000e+00  -2.2997110669300853e-06 7.7998139455896316e-08 0.0000000000000000e+00  2.9907254818690435e-06 -6.9601531617363906e-07 0.0000000000000000e+00  -1.3121939168592144e-06 3.6928960518537802e-07 0.0000000000000000e+00  1.7707309667214521e-01 -9.4415636376675632e-02 0.0000000000000000e+00  -1.8835170935922264e-07 -1.1140082168782276e-07 0.0000000000000000e+00  2.1245618246016151e-01 8.8194268129094427e-04 0.0000000000000000e+00  2.7384143187626914e-01 -3.6671886991950349e-02 0.0000000000000000e+00  1.0670222614445234e-01 2.3385070878213345e-03 0.0000000000000000e+00  3.0636228017833178e-01 1.0821245191246504e-01 0.0000000000000000e+00  2.0565696918527435e-01 5.9995029779546594e-04 0.0000000000000000e+00  2.7539580768177918e-01 -5.7396999045127031e-02 0.0000000000000000e+00  2.0181713146504504e-01 9.8554766418794820e-03 0.0000000000000000e+00  6.3876147567937608e-02 6.4204766541367281e-02 0.0000000000000000e+00  2.0509883750095073e-01 5.5849375582661238e-05 0.0000000000000000e+00  2.0503804475373541e-01 9.1992860752577561e-06 0.0000000000000000e+00  1.8927160035041896e-01 5.4969395165701222e-05 0.0000000000000000e+00  7.5234909279783033e-02 2.2000817419495113e-08 0.0000000000000000e+00  2.7319256196474989e-01 -7.2886605237658958e-09 0.0000000000000000e+00  2.1319154670190898e-01 1.5854716695759131e-06 0.0000000000000000e+00  2.3645699588479532e-01 7.1404009351221959e-02 0.0000000000000000e+00  1.7130761495521904e-01 7.2737530856365483e-06 0.0000000000000000e+00  1.8548052649154065e-01 3.3650432265472908e-03 0.0000000000000000e+00  1.9433746824292886e-01 1.4010127965271111e-03 0.0000000000000000e+00  2.5040791404860729e-01 -4.7790709630190567e-02 0.0000000000000000e+00  1.8497923900400143e-01 7.0457020285954890e-06 0.0000000000000000e+00  1.8956085012946247e-01 2.1367011612122161e-04 0.0000000000000000e+00  1.8778397620920562e-01 -1.3718416773051060e-02 0.0000000000000000e+00  3.9747599814748141e-01 -6.6470350484898702e-02 0.0000000000000000e+00  3.3906098647754547e-02 -1.1869554343738003e-02 0.0000000000000000e+00  1.8929625653710908e-01 2.8142523193108334e-06 0.0000000000000000e+00  1.7718062951161290e-01 7.0822402050589438e-03 0.0000000000000000e+00  1.9106486861582248e-01 1.5345089070617221e-03 0.0000000000000000e+00  1.6398768054457818e-01 2.0939266725635776e-03 0.0000000000000000e+00  1.1220428727199266e-01 -3.5607885064812481e-02 0.0000000000000000e+00  4.3279306702381687e-01 -3.6720924218368513e-02 0.0000000000000000e+00  1.5964650512673683e-06 -4.2128642275673841e-07 0.0000000000000000e+00  2.1732167532191921e-01 6.8610813903352601e-05 0.0000000000000000e+00  -8.7906607059535652e-07 1.9495259509951840e-07 0.0000000000000000e+00  1.9886557511066724e-01 2.1563947559803342e-04 0.0000000000000000e+00  3.4690398060243005e-01 -1.1238436572103584e-01 0.0000000000000000e+00  2.1703794837371007e-01 5.4075543072598029e-03 0.0000000000000000e+00  1.2574546868380279e-01 7.1613955439303170e-02 0.0000000000000000e+00  2.3150073442117136e-01 1.3798119295727003e-02 0.0000000000000000e+00  2.0869750584223587e-01 2.4768924605696720e-02 0.0000000000000000e+00  1.4778067943745318e-01 7.4025834991301692e-02 0.0000000000000000e+00  4.6210353129481957e-01 -1.0432232359375296e-02 0.0000000000000000e+00  5.7468273472402631e-02 3.3718999670167775e-02 0.0000000000000000e+00  -2.2369623868223423e-07 -1.4188071726764399e-07 0.0000000000000000e+00  1.5000535175655391e-01 -2.8143425215363428e-06 0.0000000000000000e+00  -1.6842866574513715e-06 -1.9489223743400677e-09 0.0000000000000000e+00  -1.2597150054681927e-06 5.0253317051195848e-09 0.0000000000000000e+00  -1.2477071782226809e-06 -1.7511136474516329e-07 0.0000000000000000e+00  2.1736813842497757e-01 1.5794670075635379e-03 0.0000000000000000e+00  -1.6941318152332292e-06 3.7698145232850794e-08 0.0000000000000000e+00  4.0323282154516954e-01 4.3051363103990617e-02 0.0000000000000000e+00  3.7462215360683110e-01 7.9893455064713667e-02 0.0000000000000000e+00  1.5894740614979325e-01 4.4142296645001442e-05 0.0000000000000000e+00  3.4338539314422878e-01 1.3497770916683700e-02 0.0000000000000000e+00  -1.0477139955430629e-06 -4.3017680990762956e-09 0.0000000000000000e+00  -1.2442083659178927e-07 -1.3054243036205097e-08 0.0000000000000000e+00  1.6281830362566654e-06 2.3269762209802076e-07 0.0000000000000000e+00  1.6357183597022501e-01 -3.2091163054766624e-06 0.0000000000000000e+00  1.3241007505838948e-01 1.2332633863283701e-02 0.0000000000000000e+00  -2.9742692267099096e-07 -6.3233709904539654e-08 0.0000000000000000e+00  1.4125396341830374e-01 -2.2181359326569745e-02 0.0000000000000000e+00  1.6142548459622910e-01 1.5121968069569963e-01 0.0000000000000000e+00  4.0068787476678086e-01 -4.2690486301538585e-02 0.0000000000000000e+00  1.5885743976486806e-06 -2.2863248319757751e-07 0.0000000000000000e+00  9.7271327701263885e-02 5.1677650046449045e-02 0.0000000000000000e+00  2.1533972508514662e-01 3.7373188402301362e-03 0.0000000000000000e+00  1.6605869629708506e-01 1.4953018157503658e-03 0.0000000000000000e+00  -2.3246590275972786e-07 1.0764195001993493e-07 0.0000000000000000e+00  3.9957331183562636e-02 -3.4115547858585338e-02 0.0000000000000000e+00  2.1615298644929340e-01 4.8214842221215549e-04 0.0000000000000000e+00  2.8498140842416958e-01 -8.4040230680947417e-02 0.0000000000000000e+00  2.2486760928300442e-01 -7.2904398672052643e-03 0.0000000000000000e+00  1.5977095973298530e-01 3.1371309584291344e-04 0.0000000000000000e+00  2.0155691627921357e-01 -5.2077181458432507e-02 0.0000000000000000e+00  2.3485778843185873e-01 2.5695446007008401e-02 0.0000000000000000e+00  3.4647572664914930e-02 2.5971797470007132e-02 0.0000000000000000e+00  1.8064343711209743e-01 -6.7693359477338844e-02 0.0000000000000000e+00  3.5047535105943932e-02 2.7966568932460280e-02 0.0000000000000000e+00  2.0965242122652930e-01 7.6725386971222762e-03 0.0000000000000000e+00  3.7157294744682760e-02 1.4326573341067990e-02 0.0000000000000000e+00  1.0359829656805102e-01 -2.1538656918990692e-02 0.0000000000000000e+00  -9.3939872176385831e-07 -1.4583992893401351e-07 0.0000000000000000e+00  -4.9151726809284036e-07 -1.2427430823578521e-08 0.0000000000000000e+00  -3.7720658609114956e-07 3.3653001875041960e-07 0.0000000000000000e+00  3.8294691424624916e-01 -9.2648432390901314e-02 0.0000000000000000e+00  7.8099064932503751e-02 3.1539610422174721e-02 0.0000000000000000e+00  -2.1466216680017319e-06 -1.0627015398425763e-07 0.0000000000000000e+00  -7.7101003348919126e-07 -1.0784182723151625e-08 0.0000000000000000e+00  1.5500969958001568e-01 4.4953120232358234e-04 0.0000000000000000e+00  2.1106554602574515e-01 1.3772283229507315e-04 0.0000000000000000e+00  -7.2019242855693969e-07 -6.1402752837344399e-10 0.0000000000000000e+00  -6.1262880312965454e-07 -3.8077692893832358e-08 0.0000000000000000e+00  -1.2514444674490842e-06 -5.1380593910557428e-08 0.0000000000000000e+00  -1.5224357500592207e-07 -2.5522862706123429e-10 0.0000000000000000e+00  -1.0024445618951927e-07 -1.4696908234667425e-10 0.0000000000000000e+00  3.6548455524900754e-07 -1.9984839232321888e-07 0.0000000000000000e+00  -2.0952206717665737e-06 -2.7857137582321290e-07 0.0000000000000000e+00  -3.5706620849919620e-06 6.6950320023739006e-07 0.0000000000000000e+00  2.0170600122880075e-07 1.9206122348979032e-07 0.0000000000000000e+00  2.0222584137266648e-06 -4.8771514051214722e-07 0.0000000000000000e+00  1.5120873694791913e-07 -2.7482572848019171e-09 0.0000000000000000e+00  -9.3062036232591392e-07 6.2550194003053074e-10 0.0000000000000000e+00  -3.1896301597647819e-07 -2.5419312991284925e-10 0.0000000000000000e+00  3.4506172711685702e-03 1.3091864372330449e-02 0.0000000000000000e+00  1.2629363170695598e-01 5.4250948626783689e-03 0.0000000000000000e+00  1.1636803880384480e-01 -9.2306317839644728e-03 0.0000000000000000e+00  1.4713123037925072e-01 1.9530602108286789e-04 0.0000000000000000e+00  2.9235415637733819e-01 7.6848972505100643e-02 0.0000000000000000e+00  3.3543556138599412e-01 5.4268660367709255e-02 0.0000000000000000e+00  3.1535732764581453e-01 2.6461451650071400e-02 0.0000000000000000e+00  1.5503110289877767e-01 1.0501438872203563e-05 0.0000000000000000e+00  2.1763104279394316e-01 8.4668998096321460e-04 0.0000000000000000e+00  2.2723850384257713e-01 5.4111927124947390e-03 0.0000000000000000e+00  1.2731349234280448e-01 2.7043889033640410e-03 0.0000000000000000e+00  2.1750983427719028e-01 1.2774608210155934e-06 0.0000000000000000e+00  2.1774811631793131e-01 4.5251649220836732e-06 0.0000000000000000e+00  2.1220736676880253e-01 6.6170173316950039e-06 0.0000000000000000e+00  2.1625364275937897e-01 3.2336723078668938e-05 0.0000000000000000e+00  1.3898921489754962e-01 9.9783799404974867e-06 0.0000000000000000e+00  1.4735566872867881e-01 1.1389142453909384e-05 0.0000000000000000e+00  2.0503693255429734e-01 1.9357576525523223e-01 0.0000000000000000e+00  4.5306038568182785e-02 6.3509199704999852e-02 0.0000000000000000e+00  1.1132046204057387e-01 7.3006552066706559e-03 0.0000000000000000e+00  2.1913267106345272e-01 -5.5666729094484635e-03 0.0000000000000000e+00  1.8357748671315999e-01 7.9382628399100159e-04 0.0000000000000000e+00  2.1594589592974356e-01 4.4080718816183652e-04 0.0000000000000000e+00  2.2175501934292738e-01 5.0985838529417704e-03 0.0000000000000000e+00  2.1052943024613163e-01 1.0239169174153994e-05 0.0000000000000000e+00  1.4681216190510143e-01 1.2154897071421597e-03 0.0000000000000000e+00  2.1589023421480760e-01 2.0167938755599303e-03 0.0000000000000000e+00  2.5860841229913556e-01 -2.6908224036660319e-02 0.0000000000000000e+00  1.4279601379552712e-01 4.8231962300963570e-05 0.0000000000000000e+00  2.1249661413828505e-01 1.5724224743441151e-04 0.0000000000000000e+00  1.4014883898581015e-01 1.0172299143762064e-05 0.0000000000000000e+00  1.5718107915770760e-01 8.2681642072255659e-02 0.0000000000000000e+00  2.4855004364353697e-01 1.3212780016202724e-01 0.0000000000000000e+00  2.1635944245019614e-01 3.1440749151132694e-02 0.0000000000000000e+00  9.3367944830960364e-02 2.2976516796464857e-03 0.0000000000000000e+00  3.2183834547330126e-01 -1.0879767803790587e-01 0.0000000000000000e+00  1.9037668769994934e-01 1.2808461963450091e-02 0.0000000000000000e+00  3.9194337122263828e-01 1.8324826618594251e-02 0.0000000000000000e+00  2.1282854473566329e-01 3.9272316486493120e-03 0.0000000000000000e+00  2.0045892407877866e-01 6.2002070655144516e-03 0.0000000000000000e+00  3.4663708436919349e-01 1.8810139161858208e-01 0.0000000000000000e+00  2.7360696674873525e-01 3.5866747400769228e-02 0.0000000000000000e+00  2.3206508300352502e-01 7.1778574376992726e-02 0.0000000000000000e+00  2.1776164614561444e-01 1.3797719133185946e-04 0.0000000000000000e+00  2.0050068122635467e-01 -1.2772426106719446e-05 0.0000000000000000e+00  2.1317735555132755e-01 2.2532564266981921e-06 0.0000000000000000e+00  3.2750717497305754e-01 -4.9621699272642171e-02 0.0000000000000000e+00  1.2592759580908164e-01 2.5259726938455487e-02 0.0000000000000000e+00  1.2944116226749000e-01 5.3565216317401495e-04 0.0000000000000000e+00  2.0748855247726816e-01 2.1231077295910613e-02 0.0000000000000000e+00  1.5657401097030774e-01 4.7273131766092519e-02 0.0000000000000000e+00  2.1182349527258204e-01 2.7267115833298858e-03 0.0000000000000000e+00  1.4300529547224886e-01 1.1715028815563384e-03 0.0000000000000000e+00  1.5290811902237200e-01 -2.4460845557225004e-02 0.0000000000000000e+00  4.6944543704939018e-01 4.6945714312096411e-02 0.0000000000000000e+00  1.6953189329064783e-01 -7.6968605624259570e-02 0.0000000000000000e+00  3.1145242185797078e-01 -5.4580045713328355e-02 0.0000000000000000e+00  2.0396320919795649e-01 1.1913549505913497e-05 0.0000000000000000e+00  2.1014167981691961e-01 -2.0750810438207264e-02 0.0000000000000000e+00  2.0313858682721309e-01 9.7088876346095520e-04 0.0000000000000000e+00  2.1413621539420635e-01 2.2107935143903701e-03 0.0000000000000000e+00  2.0554131314397497e-01 -3.2809654221779912e-03 0.0000000000000000e+00  -1.1404668884001946e-02 -2.0674149480552902e-04 0.0000000000000000e+00  1.1145949927491990e-01 6.5260710675718871e-05 0.0000000000000000e+00  1.1484147419419624e-01 -3.7993964955533878e-03 0.0000000000000000e+00  1.0068062719271086e-01 -7.6341200274254546e-03 0.0000000000000000e+00  6.3123580039349175e-02 1.7774407958358725e-02 0.0000000000000000e+00  1.9988414522028405e-01 1.8584354643403684e-05 0.0000000000000000e+00  1.1927613931978225e-01 1.2314073667926350e-06 0.0000000000000000e+00  4.0524337980342839e-01 -3.8695905365066847e-02 0.0000000000000000e+00  2.1313068460457676e-01 2.6195031750123526e-04 0.0000000000000000e+00  2.0522125902316105e-01 3.2377966204730880e-05 0.0000000000000000e+00  3.5785435325111456e-02 7.1551416649478543e-08 0.0000000000000000e+00  8.8070121735634221e-02 -5.5062551436333942e-02 0.0000000000000000e+00  1.5901920327917116e-01 4.2371873742714436e-02 0.0000000000000000e+00  2.1524657739709199e-01 3.7322094293342949e-05 0.0000000000000000e+00  2.0316146221110143e-01 4.7327883377222546e-04 0.0000000000000000e+00  9.6474237811037408e-02 -1.0232662816872882e-02 0.0000000000000000e+00  2.2787886718210262e-01 -4.3811801841716118e-02 0.0000000000000000e+00  3.8074335832211437e-01 3.5778797028557394e-02 0.0000000000000000e+00  1.2985182373929824e-01 5.4103413409248107e-04 0.0000000000000000e+00  1.0981227813213407e-01 5.9957433459342220e-05 0.0000000000000000e+00  1.2221432599481408e-01 -6.6020188452403805e-06 0.0000000000000000e+00  -3.1248774451039176e-03 2.2632137087995143e-02 0.0000000000000000e+00  3.3356381817544040e-01 1.9081592411045066e-08 0.0000000000000000e+00  1.1385728055798713e-01 1.2365625779868611e-03 0.0000000000000000e+00  3.9132559290491142e-01 5.3556314463484404e-03 0.0000000000000000e+00  1.2643366841897180e-01 2.4930760427663883e-07 0.0000000000000000e+00  2.0595006765766344e-01 -1.4662260440078807e-02 0.0000000000000000e+00  1.1852651340140109e-01 -6.6706906003466886e-08 0.0000000000000000e+00  2.1319890580132581e-01 7.3687943326257581e-06 0.0000000000000000e+00  1.2221774416612691e-01 1.0563124477782320e-05 0.0000000000000000e+00  2.1733316635029534e-01 -6.1750008787810954e-08 0.0000000000000000e+00  1.2222514913500718e-01 1.2979766347629106e-05 0.0000000000000000e+00  1.9985028288711160e-01 2.4333895554062650e-03 0.0000000000000000e+00  2.1601681995405603e-01 3.3413589300668044e-06 0.0000000000000000e+00  1.2544357761432756e-01 -3.7096208551810027e-04 0.0000000000000000e+00  9.9279664034787440e-02 8.6901364678708035e-04 0.0000000000000000e+00  1.9856039546708454e-01 2.9316605010020740e-03 0.0000000000000000e+00  4.4196690554185979e-02 -1.3625803375827871e-02 0.0000000000000000e+00  3.1609116367482071e-01 -1.6351625792318272e-02 0.0000000000000000e+00  2.8776462382269985e-01 -1.9377650657415691e-02 0.0000000000000000e+00  4.1545265688816180e-01 -4.8821066866413070e-02 0.0000000000000000e+00  1.1198135198785887e-01 2.4862832655394245e-04 0.0000000000000000e+00  3.2845389052856061e-01 -6.3119137601891598e-02 0.0000000000000000e+00  2.6961492378467972e-01 -2.4531776909191821e-02 0.0000000000000000e+00  1.9523036643953859e-01 1.2188817000181005e-05 0.0000000000000000e+00  2.2386469440569948e-01 -2.7625177076119712e-02 0.0000000000000000e+00  9.3648128629776201e-02 6.3294962346901148e-06 0.0000000000000000e+00  1.3327702375385436e-01 -1.3740228322143947e-02 0.0000000000000000e+00  2.3114052603020721e-01 9.3704789518