<?xml version="1.0"?>
<VTKFile type="UnstructuredGrid"  version="0.1"  >
<UnstructuredGrid>
<Piece  NumberOfPoints="1404" NumberOfCells="2604">
<Points>
<DataArray  type="Float64"  NumberOfComponents="3"  format="ascii">0 0.41 0  0 0 0  2.2 0 0  2.2 0.41 0  0.2353553390593274 0.2353553390593274 0  0.25 0.2 0  0.2353553390593274 0.1646446609406726 0  0.2 0.15 0  0.1646446609406726 0.1646446609406726 0  0.15 0.2 0  0.1646446609406726 0.2353553390593274 0  0.2 0.25 0  0.6923879532511287 0.188268343236509 0  0.7 0.15 0  0.6923879532511287 0.1117316567634909 0  0.6707106781186547 0.07928932188134523 0  0.6382683432365089 0.05761204674887133 0  0.6 0.04999999999999999 0  0.5617316567634909 0.05761204674887134 0  0.5292893218813453 0.07928932188134524 0  0.5076120467488713 0.111731656763491 0  0.5 0.15 0  0.5076120467488713 0.188268343236509 0  0.5292893218813453 0.2207106781186547 0  0.561731656763491 0.2423879532511287 0  0.6 0.25 0  0.6382683432365089 0.2423879532511287 0  0.6707106781186547 0.2207106781186547 0  1.1 0 0  0 0.205 0  1.1 0.41 0  0.55 0 0  0.55 0.41 0  0.275 0 0  0.8250000000000001 0 0  0.275 0.41 0  0.8250000000000001 0.41 0  0.6875 0 0  0.61875 0 0  1.65 0.41 0  1.65 0 0  1.375 0 0  1.375 0.41 0  1.925 0 0  1.925 0.41 0  1.5125 0.205 0  1.7875 0.205 0  0.9625000000000001 0.205 0  1.2375 0.205 0  2.2 0.205 0  1.99375 0.2152743902439024 0  0.4125 0.41 0  2.0625 0 0  2.0625 0.41 0  2.2 0.3075 0  1.7875 0.41 0  1.375 0.1486128048780488 0  1.5125 0 0  1.7875 0 0  1.5125 0.41 0  0.9625000000000001 0.41 0  0.4125 0 0  0.1375 0 0  0.1375 0.41 0  0.6875 0.41 0  0.9625000000000001 0 0  1.2375 0 0  1.1 0.1486128048780488 0  1.2375 0.41 0  1.65 0.1486128048780487 0  0.823495464168302 0.2603780552348366 0  0.3738707794507017 0.2720196349488618 0  0.3662291281331582 0.1311456406657909 0  1.676715909090909 0.2793064024390244 0  1.126715909090909 0.2793064024390244 0  1.348284090909091 0.2793064024390244 0  0.8287581077665108 0.1302150898054257 0  1.894702181800738 0.1282910975492754 0  2.092797818199262 0.1282910975492754 0  1.85625 0.3075 0  0 0.3075 0  0 0.1025 0  2.099172119769978 0.25625 0  0.4752414543992246 0.3180372603390748 0  1.99375 0.08395950269330846 0  1.459960956013612 0.3075 0  1.569025960719943 0.2986889805672169 0  1.03125 0.3278689922742084 0  1.959375 0.3126371951219512 0  1.749222215368287 0.1025 0  1.275777784631713 0.1025 0  0.9228016959331474 0.3075 0  1.000777784631713 0.1025 0  2.2 0.1025 0  1.225938124459196 0.3075 0  1.550777784631713 0.1025 0  1.44375 0.07430640243902442 0  1.16875 0.07430640243902439 0  0.7562500000000001 0.3358727844323386 0  0.89375 0 0  1.899250267340833 0.2229966846119207 0  0.61875 0.41 0  1.766482954545455 0.2934032012195123 0  1.046078563095834 0.2389031808701145 0  1.421109702350723 0.2261157654379721 0  0.07567171807980319 0.25625 0  0.2511897295290552 0.3235829392832554 0  0.07655002503762308 0.1488653460959645 0  0.1377245246847496 0.3206030474919778 0  0.6694099692696568 0.3242771941727899 0  0.9168971191497528 0.1295727156104653 0  0.7562500000000001 0 0  2.118919042110979 0.3422084711244843 0  2.13125 0 0  0.06875000000000001 0 0  1.30625 0.41 0  1.597888256393107 0.2173787389261347 0  0.34375 0.41 0  0.2493272016354703 0.08091360081773515 0  0.5588896233436766 0.3264056208677571 0  1.829299675393195 0.07400700849299596 0  0.1334079128307869 0.08523463035786674 0  1.71875 0.41 0  0.06875000000000001 0.41 0  1.16875 0.41 0  2.038220665644273 0.332420740103091 0  0.8810647413215221 0.2027360103977071 0  0.34375 0 0  0.7453891198966415 0.2471459041008237 0  0.42112093004955 0.1988123139090554 0  0.8314023090855964 0.3351170841770613 0  0.89375 0.41 0  0.7906250000000001 0.06615386481594063 0  1.452769549894695 0.1548122580621249 0  1.369219062229598 0.07430640243902442 0  1.30625 0 0  1.07420695807087 0.07430640243902439 0  1.720943423819132 0.1714577452753128 0  1.157188124459196 0.205 0  1.304056576180868 0.1714577452753128 0  1.67579304192913 0.07430640243902437 0  1.209670467133757 0.136210026696477 0  0.4312800784902823 0.08036147352247747 0  0.8723959680194693 0.07066860609690805 0  1.025335513626278 0.1700681449722324 0  0.7945632284247136 0.1940204203251442 0  0.378125 0.3452261501101892 0  0.3307109909790086 0.2037165635083759 0  0.3009701032039409 0.2702970083403109 0  0.20625 0.41 0  1.58125 0 0  0.4812500000000001 0 0  0.9838963872396855 0.2722244191167347 0  0.06772484939107212 0.3260067317374387 0  0.20625 0 0  1.58125 0.41 0  1.631724228912893 0.3381867502687533 0  1.825608881788174 0.14499488549201 0  1.85625 0 0  1.44375 0 0  1.44375 0.41 0  1.85625 0.41 0  2.13125 0.41 0  0.7562500000000001 0.41 0  0.4812500000000001 0.41 0  1.16875 0 0  1.03125 0.41 0  1.03125 0 0  1.71875 0 0  1.99375 0 0  1.99375 0.41 0  0.9408708167433545 0.0651989315768642 0  1.340625 0.3489494290853124 0  1.134375 0.3489494290853123 0  1.700180620188976 0.3438659752031281 0  0.29668452290037 0.1318471691375986 0  0.3175441051360096 0.06496934809856265 0  0.06509151636162461 0.08140814015999148 0  2.135782184673599 0.07126652247502523 0  1.668441847249787 0.2129203728327609 0  1.295782514339747 0.2378437748815763 0  1.409375 0.3520314716057996 0  2.129248544730567 0.1906135162504124 0  2.060771381434487 0.1989445750470348 0  2.013252586573865 0.1496169464686054 0  1.942766402200229 0.1734448904596831 0  1.895522487186454 0.06076163953489683 0  2.069553871656643 0.06605731020975725 0  0.4670911801404742 0.2498408582391372 0  0.7622743084658112 0.1264100838268133 0  1.274680914880868 0.3520219391081363 0  0.3148669572599245 0.3331753056385887 0  1.614713220494657 0.09473434380863296 0  1.72990325744076 0.2380068107952482 0  1.356580098625191 0.2120393231351682 0  2.034370752044885 0.2668681600792073 0  1.51768709249349 0.3426260931494756 0  1.561883724969884 0.1650446847858835 0  1.197344062229598 0.2523725417393646 0  1.804085235518364 0.3468178408964637 0  1.817887819205233 0.2589243285818559 0  1.905897727272727 0.3485060975609756 0  0.7296439733931823 0.06337466644369745 0  0.4250935971865949 0.1394919578475796 0  0.3773030136511669 0.05130372097998036 0  1.192836486056382 0.3562350748565544 0  1.1029124365364 0.226143510831178 0  1.28257088594801 0.2944411014911587 0  0.1905185804731426 0.06029880676029167 0  1.474860187679412 0.2504218616229368 0  1.406767003493824 0.2829282258560709 0  0.5209826960981064 0.2830664557824064 0  0.5131119502780163 0.3617405848213254 0  0.1948220106098172 0.3081993407644811 0  1.845656689180403 0.1998310418452388 0  2.144958525570388 0.2909790873294231 0  2.2 0.15375 0  0.8833025251326762 0.2625402923007629 0  0.171875 0.3653875762360952 0  1.57794966442982 0.3540357145964566 0  0.446875 0.366068291212731 0  0.4272051715206439 0.2891929346190664 0  1.508991196088596 0.1421783375065625 0  1.50436820029908 0.06143401634903343 0  1.223857000523521 0.08235548624535324 0  0.6137904613287555 0.3066826366281556 0  1.153316824384777 0.1289850171317838 0  0.9751573703656133 0.327632618473408 0  2.148922302309752 0.1258841779285271 0  0.9281250000000001 0.3643758685795699 0  1.621993280276081 0.2841214267927899 0  1.550118654119087 0.2461998729100966 0  1.327182649291491 0.1216967252533594 0  0.9939955742738924 0.04663549843168518 0  1.753125 0.04556020050186112 0  1.271875 0.04556020050186116 0  0.9734326767716519 0.1506854560854393 0  0.103125 0.3675775577080512 0  1.94956388244759 0.1180512551534177 0  1.949997712993411 0.04965831614304109 0  0.717433898748555 0.295596016333797 0  1.771961817615021 0.1530278789497521 0  1.909246823951428 0.2812757146784527 0  0 0.35875 0  1.050632804931928 0.1226269704412814 0  0.05695108326502596 0.2024009637347154 0  1.948575539857022 0.2445328248721197 0  1.697271520964565 0.1233917627620729 0  1.065625 0.3689344961371042 0  1.085849084308977 0.3170853572226867 0  0.1015495998772944 0.04226029099983852 0  1.577403511714593 0.05463601888079143 0  1.751571320346033 0.3651102912045228 0  2.2 0.35875 0  0.7441773632462837 0.1786786606458751 0  0 0.05125 0  1.466879772203159 0.3611261772912453 0  0.6282230348858767 0.3577675483994025 0  1.990280163552011 0.3564754268533217 0  1.17471064520912 0.2990917256188288 0  0 0.25625 0  2.2 0.25625 0  2.2 0.05125 0  0 0.15375 0  1.853978576207987 0.35875 0  1.515638456102889 0.2882700110184686 0  2.150453692751374 0.2387066338105111 0  1.323782677156475 0.04897634338873398 0  1.409375 0.03715320121951221 0  1.406484531114799 0.1087852750766809 0  1.134375 0.03715320121951219 0  0.721875 0.3729363922161693 0  0.7941695928236929 0.3696489254637395 0  0.7934827162619036 0.3013409431456604 0  1.627401732573545 0.04552157221025036 0  0.9352049974617431 0.2507047965699472 0  0.8763260682738339 0.3611103317460093 0  2.045405893604797 0.1105340662939892 0  1.255408269734577 0.1577307500159216 0  2.028125 0.03707597992059326 0  1.003030137506755 0.3689344961371042 0  1.248258025468107 0.2565907092181813 0  1.203125 0.03661323374043041 0  0.4800125512335631 0.0549472816999725 0  2.072662025974815 0.2975086504196739 0  0.240625 0.3729825336867542 0  1.113252391110535 0.10238286244357 0  1.071052763974265 0.1885202618768825 0  0.8738809401657862 0.3106483608284829 0  0.6786819423003397 0.2677558482644021 0  1.887722846421017 0.1760882698830035 0  1.472640588990488 0.1118278026240017 0  0.5843750000000001 0.41 0  1.865937103925594 0.2604137786483804 0  1.463913572748262 0.2030442564990043 0  1.376426316059077 0.3186741374914345 0  0.1038643885363755 0.2162701735320032 0  0.1769473813227781 0.1070849728467114 0  0.458787839809176 0.171541653775316 0  0.240625 0 0  0.04179569703428024 0.2877217852556549 0  0.1258346557601885 0.2699740073054968 0  1.722140693354707 0.282908100935778 0  0.41206179117512 0.2448172567039922 0  0.3702471778075604 0.2265217604228704 0  0.3714881805374215 0.1786967818665642 0  1.77397096061971 0.2481483237422926 0  2.105123889160691 0.03743885948498647 0  1.001138337938679 0.229719337663998 0  1.051242910646791 0.2854826559431138 0  1.395420985247586 0.18
[...]
<PointData  Vectors="f_37"> 
<DataArray  type="Float64"  Name="f_37"  NumberOfComponents="3" format="ascii">2.4940729056121504e-07 4.5452392467626345e-08 0.0000000000000000e+00  -4.4504905224083437e-06 -3.5336957098656958e-07 0.0000000000000000e+00  -6.4327198339953767e-07 2.9826959860682395e-09 0.0000000000000000e+00  -8.0477725147384258e-07 7.4621031823352812e-10 0.0000000000000000e+00  -6.1053474577636841e-08 3.1821413599363990e-07 0.0000000000000000e+00  1.1397218091227925e-07 -4.9619256450916935e-08 0.0000000000000000e+00  1.2731965089332137e-07 1.7180734071878955e-07 0.0000000000000000e+00  -9.1273846280379513e-07 -1.0113858624844588e-07 0.0000000000000000e+00  -8.6365439109090826e-07 -1.2691441106633078e-07 0.0000000000000000e+00  1.3039903762979708e-07 -4.4719690596249643e-07 0.0000000000000000e+00  -9.3106259040778135e-07 -5.2211788574096846e-07 0.0000000000000000e+00  -1.0662988022255741e-06 -2.5379800701317817e-07 0.0000000000000000e+00  4.2320980339040052e-07 -8.6619260306280476e-08 0.0000000000000000e+00  -3.3058935425305870e-07 -4.6915471874887120e-07 0.0000000000000000e+00  -3.7734724039076009e-07 -7.7818848283690016e-08 0.0000000000000000e+00  -8.7867485832581907e-07 -1.9539163274970822e-07 0.0000000000000000e+00  2.4008125216262339e-06 4.1403141053575558e-07 0.0000000000000000e+00  3.4756853605118837e-01 9.6697270345698375e-02 0.0000000000000000e+00  1.6560386090592839e-06 -7.2382155323217594e-08 0.0000000000000000e+00  -1.1671571739478947e-06 3.8120463479916847e-07 0.0000000000000000e+00  -1.2967620445927615e-06 -4.0708840073837174e-07 0.0000000000000000e+00  -5.8524779881121122e-08 -5.5786628300378896e-07 0.0000000000000000e+00  4.8321398407049484e-07 7.3204302138969925e-08 0.0000000000000000e+00  -4.2555665490362194e-07 -1.8135133176311783e-06 0.0000000000000000e+00  -3.1200014939997263e-06 -1.6184885971376495e-06 0.0000000000000000e+00  -4.5672013100707958e-06 -4.2971701799219194e-07 0.0000000000000000e+00  -4.4996008605125297e-06 -1.1635659799122171e-07 0.0000000000000000e+00  -3.0304763086322317e-07 7.8337153782142701e-08 0.0000000000000000e+00  2.1481712983949179e-07 -7.0352529332208549e-09 0.0000000000000000e+00  1.6583342764483827e-01 -4.3076835959025524e-07 0.0000000000000000e+00  -1.0222688854413319e-06 -8.0819743149097703e-08 0.0000000000000000e+00  3.0615224284925775e-06 8.8386365988055299e-08 0.0000000000000000e+00  -5.5708916090947991e-07 -8.8200007188800383e-08 0.0000000000000000e+00  4.1645080413500853e-07 4.5249383457978145e-08 0.0000000000000000e+00  -2.3590186562023144e-07 -4.3943243951415663e-08 0.0000000000000000e+00  -1.0275666372345463e-06 4.6976832398759711e-09 0.0000000000000000e+00  -1.4760503665449347e-06 7.7853660721490503e-08 0.0000000000000000e+00  -2.5681474263965884e-06 -4.7366069691308193e-07 0.0000000000000000e+00  -8.7317373407284332e-06 -1.1621384137768636e-06 0.0000000000000000e+00  -1.6609772901964467e-06 -2.1206975269160110e-07 0.0000000000000000e+00  -1.0321181931887368e-06 -6.8527067451076855e-08 0.0000000000000000e+00  -1.4668282778819176e-06 1.9240608017666252e-07 0.0000000000000000e+00  7.8705254760489648e-07 2.8713168036300773e-07 0.0000000000000000e+00  -5.0077510247463389e-07 -1.7623848387736825e-09 0.0000000000000000e+00  -3.6915952041916798e-08 -7.7627736961690810e-11 0.0000000000000000e+00  2.5572481678770970e-01 -2.3878890692701077e-03 0.0000000000000000e+00  2.3092804908222989e-01 8.2126105631005510e-03 0.0000000000000000e+00  1.5421533545120208e-01 -1.1197298422620411e-02 0.0000000000000000e+00  2.8899284307385120e-01 -6.9060900436159978e-02 0.0000000000000000e+00  2.3108152324630210e-01 -1.8711544068868548e-04 0.0000000000000000e+00  2.3073560205396024e-01 -3.3389064966668508e-04 0.0000000000000000e+00  2.6930877562877508e-07 2.4249684896096872e-09 0.0000000000000000e+00  1.3631984809736178e-07 1.0672659009789675e-09 0.0000000000000000e+00  -5.0357791435137623e-07 3.9007771386027364e-09 0.0000000000000000e+00  1.8522958966719333e-01 -1.1840794632742902e-04 0.0000000000000000e+00  -1.0166579506502054e-06 -5.4525562865110027e-08 0.0000000000000000e+00  2.4324555043620527e-01 -7.5199282823040559e-02 0.0000000000000000e+00  -2.4451923578130000e-06 3.2400148662372090e-07 0.0000000000000000e+00  -7.8693930657032878e-07 -5.0535669753569387e-08 0.0000000000000000e+00  5.0303287833958380e-07 1.1445392886963069e-07 0.0000000000000000e+00  -2.8664756934217300e-07 -1.9764279726981006e-08 0.0000000000000000e+00  -3.5451396681871627e-07 -8.9377607048621106e-08 0.0000000000000000e+00  -8.5589858453479032e-07 -6.9281194196030343e-08 0.0000000000000000e+00  -3.7723825323636700e-07 -6.0614931470727501e-08 0.0000000000000000e+00  -2.3823159222724185e-06 5.3625938847180688e-08 0.0000000000000000e+00  -5.1856221506851929e-07 9.3242893487811296e-08 0.0000000000000000e+00  2.2904688577304828e-06 -5.9884547958637974e-07 0.0000000000000000e+00  1.2549118586270605e-01 2.8445359544849130e-03 0.0000000000000000e+00  -3.6504117165052740e-07 -6.2686179015183447e-08 0.0000000000000000e+00  2.3424257147924618e-01 1.8982071052955581e-02 0.0000000000000000e+00  2.6535658406587237e-01 -3.8656082143284240e-02 0.0000000000000000e+00  1.0595160165081963e-01 5.0728830045971805e-03 0.0000000000000000e+00  3.0495807211094733e-01 1.0650671379790135e-01 0.0000000000000000e+00  1.9420471855722637e-01 1.8886857882118531e-02 0.0000000000000000e+00  3.4930396870246749e-01 -4.7001096352456619e-02 0.0000000000000000e+00  2.3799927075343635e-01 -4.9607048018634477e-02 0.0000000000000000e+00  6.7606079787874876e-02 4.4943824214587161e-02 0.0000000000000000e+00  2.0681618401747626e-01 6.9829089876880185e-04 0.0000000000000000e+00  2.0667038241582170e-01 -3.0555831026394235e-04 0.0000000000000000e+00  1.8498510472351160e-01 1.1489647876056369e-03 0.0000000000000000e+00  7.5234905598673324e-02 4.3441052686783123e-08 0.0000000000000000e+00  2.7319254168471208e-01 2.1240532637828446e-08 0.0000000000000000e+00  2.2116707793951812e-01 -3.4239976879740265e-04 0.0000000000000000e+00  2.4049888962516519e-01 7.2518382354726754e-02 0.0000000000000000e+00  1.6277928770487499e-01 -2.3634409297196572e-04 0.0000000000000000e+00  1.4071534659804005e-01 -2.8175636186329248e-03 0.0000000000000000e+00  1.5667316408836071e-01 2.0877936527130523e-02 0.0000000000000000e+00  3.2259410028296615e-01 -2.5160001312612340e-02 0.0000000000000000e+00  1.8031638490816568e-01 -2.1461013021087188e-04 0.0000000000000000e+00  1.9059941244684733e-01 6.5367026858407463e-03 0.0000000000000000e+00  1.0472966778444483e-01 -3.7621724548307353e-02 0.0000000000000000e+00  3.9073215213273399e-01 -3.7253027096959004e-02 0.0000000000000000e+00  5.7997520808782572e-02 1.2742591774874457e-02 0.0000000000000000e+00  1.8482007516584875e-01 -1.0875179790954984e-04 0.0000000000000000e+00  2.6816501345483484e-01 -4.3989029467017805e-02 0.0000000000000000e+00  2.1382556603973291e-01 1.8582753423514929e-04 0.0000000000000000e+00  1.5137691658772598e-01 -2.6815946150117377e-02 0.0000000000000000e+00  2.0311527234659978e-02 4.2292636714566772e-03 0.0000000000000000e+00  4.2676327729259550e-01 -3.6067894659839894e-02 0.0000000000000000e+00  -4.2095485224000545e-07 5.3987946230702641e-09 0.0000000000000000e+00  2.2980824906558939e-01 9.8553547689004704e-04 0.0000000000000000e+00  -9.5962465605755860e-07 1.3709098038939464e-09 0.0000000000000000e+00  1.9373903847870635e-01 6.5760072392542545e-03 0.0000000000000000e+00  2.8040309894184112e-01 -3.2213048519398484e-02 0.0000000000000000e+00  2.7024947720955345e-01 -4.8024216834099367e-02 0.0000000000000000e+00  1.2569921911298712e-01 7.1207190053980768e-02 0.0000000000000000e+00  2.3110857931484077e-01 1.4796187594300177e-02 0.0000000000000000e+00  2.0877992154479369e-01 2.4411905857769072e-02 0.0000000000000000e+00  1.4758294592068724e-01 7.3975406913538211e-02 0.0000000000000000e+00  4.5664408850610666e-01 -1.3523013584093371e-02 0.0000000000000000e+00  7.5992526511181865e-02 2.0064423328106425e-02 0.0000000000000000e+00  -2.1223669385854552e-07 -1.0458755902701143e-07 0.0000000000000000e+00  1.4083161947680065e-01 -1.3249478546049887e-04 0.0000000000000000e+00  -1.6041449514126934e-06 2.4840832166906826e-09 0.0000000000000000e+00  -1.2980368611227993e-06 8.8649563148152957e-09 0.0000000000000000e+00  -9.6582546091797784e-08 6.2051244637276396e-09 0.0000000000000000e+00  2.3308590395112566e-01 2.6033155700202433e-02 0.0000000000000000e+00  -1.8946813272916177e-06 -1.4778684908388530e-08 0.0000000000000000e+00  4.0382493428513716e-01 4.2375884490383757e-02 0.0000000000000000e+00  3.7432246687789822e-01 7.7511222802870011e-02 0.0000000000000000e+00  1.5013005180403446e-01 1.2612476548288535e-03 0.0000000000000000e+00  3.4357891643418892e-01 1.3144224841884104e-02 0.0000000000000000e+00  -1.5449670922167330e-06 -1.4692587678086631e-07 0.0000000000000000e+00  -8.4620645550673758e-08 -1.1175461262860455e-08 0.0000000000000000e+00  -6.6861178448429926e-07 -5.5335082540984040e-08 0.0000000000000000e+00  1.5551018668927347e-01 -2.3522404950290324e-04 0.0000000000000000e+00  9.9706181910082389e-02 -2.8993868064524763e-03 0.0000000000000000e+00  -2.9199201525651362e-07 -9.7366573331434755e-08 0.0000000000000000e+00  1.4627897405739629e-01 -2.4421968269680662e-02 0.0000000000000000e+00  1.5541512495903306e-01 1.4950291547173855e-01 0.0000000000000000e+00  3.9582312624578342e-01 -3.4770229146998496e-02 0.0000000000000000e+00  1.9175340450602622e-06 -7.4945305077135911e-08 0.0000000000000000e+00  1.1650001370951046e-01 4.7096700655864368e-02 0.0000000000000000e+00  2.6097539632260058e-01 -4.5264121675257160e-02 0.0000000000000000e+00  1.0691190041034580e-01 -3.7602252035303138e-02 0.0000000000000000e+00  1.0526391870964682e-06 -3.6800878246462796e-07 0.0000000000000000e+00  2.5852332711425247e-02 1.1924370966168883e-02 0.0000000000000000e+00  2.3191452719149511e-01 1.5392178170777272e-02 0.0000000000000000e+00  2.5454988144735363e-01 -3.8458647176434532e-02 0.0000000000000000e+00  2.5799863703699299e-01 -7.9588633222044000e-02 0.0000000000000000e+00  1.6355886594867533e-01 7.2060807337494372e-03 0.0000000000000000e+00  1.4552187977789355e-01 -2.5583226120535953e-02 0.0000000000000000e+00  2.3882357671125831e-01 2.5101109934367948e-02 0.0000000000000000e+00  6.6888745516030190e-02 1.7349530683740653e-02 0.0000000000000000e+00  1.2779395528484513e-01 1.4495874304998758e-03 0.0000000000000000e+00  2.3317987190599777e-02 9.5873987702828553e-03 0.0000000000000000e+00  2.1178349158561080e-01 7.7458062158554256e-03 0.0000000000000000e+00  3.5790819079499450e-02 1.5480618545056002e-02 0.0000000000000000e+00  1.0139893224837394e-01 -2.0247891784891711e-02 0.0000000000000000e+00  -9.3288861037751271e-07 -1.1077500377452275e-07 0.0000000000000000e+00  -6.9328800466826950e-07 6.7914890935762753e-08 0.0000000000000000e+00  -6.3312437227078703e-07 3.8236460700633064e-07 0.0000000000000000e+00  3.4636459725858171e-01 -3.7702618535029625e-02 0.0000000000000000e+00  7.8049926218285881e-02 3.1244782333053875e-02 0.0000000000000000e+00  -2.2500229594017634e-06 -1.0584788729314643e-07 0.0000000000000000e+00  -9.1580473382058815e-07 -1.4905123198016939e-07 0.0000000000000000e+00  1.2336897559732016e-01 1.1251995457498887e-02 0.0000000000000000e+00  2.1814715315442332e-01 3.7457085662884419e-03 0.0000000000000000e+00  -6.4993235245279867e-07 -1.7123556817447022e-08 0.0000000000000000e+00  -2.9306696511488989e-06 5.2829811934776393e-07 0.0000000000000000e+00  9.3070770431100015e-07 3.4422340865584090e-07 0.0000000000000000e+00  -1.9168895593333675e-07 -1.0666889207458697e-08 0.0000000000000000e+00  -7.3091313582792522e-08 2.2319838294807579e-09 0.0000000000000000e+00  3.7843040125025801e-07 -2.8527491141115754e-08 0.0000000000000000e+00  -2.2402222860154032e-06 -2.6371030340242219e-07 0.0000000000000000e+00  1.5593117985351097e-06 -2.9580137638163700e-07 0.0000000000000000e+00  4.0989018844623463e-09 -4.5502853794232113e-08 0.0000000000000000e+00  -2.6040090856372752e-07 1.6485301910048356e-07 0.0000000000000000e+00  5.0077549707097965e-07 -7.0420604030348210e-08 0.0000000000000000e+00  -8.9692065709890053e-07 2.8220524264202866e-09 0.0000000000000000e+00  -2.5679209502074870e-07 2.2124300310831880e-09 0.0000000000000000e+00  4.2914567967184764e-02 6.8343685441784726e-03 0.0000000000000000e+00  1.0220902328866201e-01 -1.2151022364075316e-02 0.0000000000000000e+00  2.0787011303748187e-01 -1.7063072378106649e-02 0.0000000000000000e+00  1.2839456556909001e-01 6.0361085248751946e-03 0.0000000000000000e+00  2.9152367417204972e-01 7.5762204807606315e-02 0.0000000000000000e+00  3.3739883770683265e-01 5.3529259199951058e-02 0.0000000000000000e+00  3.1540753543253802e-01 2.6280854505013149e-02 0.0000000000000000e+00  1.4545588156920897e-01 -1.1568269389221187e-04 0.0000000000000000e+00  2.3062665939657959e-01 2.4070016889001903e-02 0.0000000000000000e+00  3.1515156760441165e-01 -8.2143132448243047e-02 0.0000000000000000e+00  7.7296725800368102e-02 -5.9910351881998442e-03 0.0000000000000000e+00  2.3027236524911332e-01 -3.1202479883530958e-04 0.0000000000000000e+00  2.3090625570842355e-01 -4.2308777984747761e-04 0.0000000000000000e+00  2.1879340546656170e-01 -3.8587571642642837e-04 0.0000000000000000e+00  2.2721735973802235e-01 7.8904607720057033e-05 0.0000000000000000e+00  1.2836573129547638e-01 1.3110382153636377e-04 0.0000000000000000e+00  1.3726706242189729e-01 -1.5797300025237400e-04 0.0000000000000000e+00  1.9870493082445317e-01 1.9062556582489198e-01 0.0000000000000000e+00  3.9398331357496381e-02 4.4821224461917046e-02 0.0000000000000000e+00  1.2457508086327124e-01 -1.3382469367087039e-02 0.0000000000000000e+00  2.1970347170790525e-01 -4.8667627517200640e-03 0.0000000000000000e+00  2.0030375561218455e-01 1.0223906634956049e-02 0.0000000000000000e+00  2.2262923524489719e-01 1.5013930601390097e-02 0.0000000000000000e+00  2.9954129741129371e-01 -8.1394159786186610e-02 0.0000000000000000e+00  2.1634353454047375e-01 -3.9389165027288529e-04 0.0000000000000000e+00  9.0881611606854248e-02 7.8265874713558531e-03 0.0000000000000000e+00  2.5201957646879397e-01 9.6673064934151998e-03 0.0000000000000000e+00  3.3444052750310110e-01 -6.3946905170756199e-02 0.0000000000000000e+00  1.3244776703854530e-01 1.4381944726089483e-03 0.0000000000000000e+00  2.1822317923996465e-01 4.3338973661907641e-03 0.0000000000000000e+00  1.3131782466277356e-01 3.3136876788210614e-05 0.0000000000000000e+00  1.6278666260212032e-01 7.6209222503378082e-02 0.0000000000000000e+00  2.4657190007553029e-01 1.3044313790985748e-01 0.0000000000000000e+00  2.1993447098467425e-01 3.1093799195292551e-02 0.0000000000000000e+00  1.5402570458730158e-01 -1.3448943512445109e-02 0.0000000000000000e+00  2.7284262797242281e-01 -3.4414601399908852e-02 0.0000000000000000e+00  2.5547040059967885e-01 -5.0738736039159446e-02 0.0000000000000000e+00  3.9249537150208069e-01 1.7989246339824003e-02 0.0000000000000000e+00  2.2321199380599133e-01 -9.6347808852586415e-03 0.0000000000000000e+00  1.9831834490301950e-01 -2.8533523186997572e-02 0.0000000000000000e+00  3.4052564857537504e-01 1.8371330107586617e-01 0.0000000000000000e+00  2.7768323122977429e-01 3.6394713436724693e-02 0.0000000000000000e+00  2.3156848896545668e-01 7.2351461505895290e-02 0.0000000000000000e+00  2.3097702172306053e-01 3.3794502075243493e-03 0.0000000000000000e+00  2.0035475991191581e-01 -2.1573764026823562e-04 0.0000000000000000e+00  2.2083357999864434e-01 -1.6193110736500741e-04 0.0000000000000000e+00  2.9860368762762790e-01 -3.8589332058591205e-02 0.0000000000000000e+00  1.2561675463129396e-01 2.5510395470857355e-02 0.0000000000000000e+00  8.7708725635171209e-02 8.5724675872328026e-03 0.0000000000000000e+00  2.1011521670159800e-01 2.1557778336732246e-02 0.0000000000000000e+00  1.5811805654084898e-01 4.9367901907916595e-02 0.0000000000000000e+00  2.4954754490873485e-01 -1.5457829775085268e-02 0.0000000000000000e+00  1.5197601901087532e-01 -7.5379777945360597e-03 0.0000000000000000e+00  4.3507255234472367e-02 -1.1241805687937371e-02 0.0000000000000000e+00  4.6278589173242307e-01 4.2917832068712317e-02 0.0000000000000000e+00  1.1009967670595992e-01 -2.2693795804284065e-03 0.0000000000000000e+00  3.4705896240137080e-01 -2.6701015059092465e-02 0.0000000000000000e+00  2.0507783421209358e-01 -2.0547945029338830e-04 0.0000000000000000e+00  2.3747737143523590e-01 -1.1919512641428782e-02 0.0000000000000000e+00  1.8121681924111066e-01 2.3812832511664432e-02 0.0000000000000000e+00  2.1445611504325215e-01 1.9981899772066217e-02 0.0000000000000000e+00  1.7269811583326172e-01 -6.2645822244281515e-02 0.0000000000000000e+00  2.2924141586602335e-02 4.1351917263814436e-03 0.0000000000000000e+00  1.0503038370038077e-01 1.7384092758789031e-03 0.0000000000000000e+00  6.2559148506149262e-03 -9.6913757314679369e-03 0.0000000000000000e+00  9.1869188082336073e-02 1.0341215022905963e-02 0.0000000000000000e+00  6.2790261185464491e-02 1.7627195818002234e-02 0.0000000000000000e+00  1.9871790482054216e-01 -1.1090415594658801e-04 0.0000000000000000e+00  1.0888313621120838e-01 -9.2590696020448748e-05 0.0000000000000000e+00  4.0253134329888107e-01 -4.0209165083130993e-02 0.0000000000000000e+00  2.2395149596312411e-01 8.3791432841724203e-03 0.0000000000000000e+00  2.0758020095078619e-01 3.3816746528330652e-04 0.0000000000000000e+00  3.5785431650730969e-02 8.0884289857135007e-08 0.0000000000000000e+00  7.8371312431021106e-02 1.2949477333756620e-02 0.0000000000000000e+00  1.5902799483046703e-01 4.2047297444537564e-02 0.0000000000000000e+00  2.2534975220963688e-01 -2.5739700898380020e-05 0.0000000000000000e+00  2.1480649889454911e-01 1.2982095642284823e-02 0.0000000000000000e+00  1.6367512241716678e-01 -7.6558624408476200e-03 0.0000000000000000e+00  3.2398377154572466e-01 -3.1112960154029239e-02 0.0000000000000000e+00  3.8095131000041110e-01 3.5626646902892432e-02 0.0000000000000000e+00  1.4274865726098715e-01 3.0244158381337281e-03 0.0000000000000000e+00  9.8002031909277060e-02 1.8100060936113958e-03 0.0000000000000000e+00  1.1281706778595926e-01 -5.2547718347388311e-05 0.0000000000000000e+00  -8.0145399516520586e-03 1.4779070400213572e-02 0.0000000000000000e+00  3.3356378649514146e-01 3.4589436678272088e-08 0.0000000000000000e+00  5.9562869084935979e-02 6.1331695858702717e-04 0.0000000000000000e+00  3.9183762486680052e-01 3.4259032523870085e-03 0.0000000000000000e+00  1.1751328759131943e-01 -1.5061326106858137e-04 0.0000000000000000e+00  3.1596596014813205e-01 -4.6470753347085850e-02 0.0000000000000000e+00  1.1852650608783871e-01 -2.9329357436241270e-08 0.0000000000000000e+00  2.2107027692401052e-01 -1.5988358320062385e-04 0.0000000000000000e+00  1.1245411587008684e-01 -3.6435357462810836e-05 0.0000000000000000e+00  2.1733315101661871e-01 -2.5181402414234728e-08 0.0000000000000000e+00  1.1328263384481717e-01 3.4987048686703026e-04 0.0000000000000000e+00  1.6504497956907441e-01 1.2422990515746643e-02 0.0000000000000000e+00  2.2692586328498290e-01 -2.5702002810458615e-04 0.0000000000000000e+00  3.6726022374944919e-02 -1.8382642167408286e-02 0.0000000000000000e+00  7.0086544052898478e-02 -1.1985516796192856e-02 0.0000000000000000e+00  1.8873483367867122e-01 -5.3328969532812576e-02 0.0000000000000000e+00  -8.0824031830318450e-03 4.7787737253663547e-03 0.0000000000000000e+00  3.1284645762007735e-01 -1.6537299049547070e-02 0.0000000000000000e+00  2.8571172356709801e-01 -1.7214539278620489e-02 0.0000000000000000e+00  4.0908393848904001e-01 -4.6307367519895615e-02 0.0000000000000000e+00  1.1844972165624021e-01 3.6305311872090332e-03 0.0000000000000000e+00  2.7470792292406543e-01 -3.3415032563044011e-02 0.0000000000000000e+00  2.7952360837770263e-01 -1.6700769927945204e-02 0.0000000000000000e+00  1.9230756091112247e-01 -3.1865696222110266e-04 0.0000000000000000e+00  2.1141230209992676e-01 -5.6469821963557695e-02 0.0000000000000000e+00  8.4839326317350791e-02 -7.8444677435136575e-05 0.0000000000000000e+00  1.8600583568066012e-01 -7.9079797188441586e-03 0.0000000000000000e+00  3.253