<?xml version="1.0"?>
<VTKFile type="UnstructuredGrid"  version="0.1"  >
<UnstructuredGrid>
<Piece  NumberOfPoints="1404" NumberOfCells="2604">
<Points>
<DataArray  type="Float64"  NumberOfComponents="3"  format="ascii">0 0.41 0  0 0 0  2.2 0 0  2.2 0.41 0  0.2353553390593274 0.2353553390593274 0  0.25 0.2 0  0.2353553390593274 0.1646446609406726 0  0.2 0.15 0  0.1646446609406726 0.1646446609406726 0  0.15 0.2 0  0.1646446609406726 0.2353553390593274 0  0.2 0.25 0  0.6923879532511287 0.188268343236509 0  0.7 0.15 0  0.6923879532511287 0.1117316567634909 0  0.6707106781186547 0.07928932188134523 0  0.6382683432365089 0.05761204674887133 0  0.6 0.04999999999999999 0  0.5617316567634909 0.05761204674887134 0  0.5292893218813453 0.07928932188134524 0  0.5076120467488713 0.111731656763491 0  0.5 0.15 0  0.5076120467488713 0.188268343236509 0  0.5292893218813453 0.2207106781186547 0  0.561731656763491 0.2423879532511287 0  0.6 0.25 0  0.6382683432365089 0.2423879532511287 0  0.6707106781186547 0.2207106781186547 0  1.1 0 0  0 0.205 0  1.1 0.41 0  0.55 0 0  0.55 0.41 0  0.275 0 0  0.8250000000000001 0 0  0.275 0.41 0  0.8250000000000001 0.41 0  0.6875 0 0  0.61875 0 0  1.65 0.41 0  1.65 0 0  1.375 0 0  1.375 0.41 0  1.925 0 0  1.925 0.41 0  1.5125 0.205 0  1.7875 0.205 0  0.9625000000000001 0.205 0  1.2375 0.205 0  2.2 0.205 0  1.99375 0.2152743902439024 0  0.4125 0.41 0  2.0625 0 0  2.0625 0.41 0  2.2 0.3075 0  1.7875 0.41 0  1.375 0.1486128048780488 0  1.5125 0 0  1.7875 0 0  1.5125 0.41 0  0.9625000000000001 0.41 0  0.4125 0 0  0.1375 0 0  0.1375 0.41 0  0.6875 0.41 0  0.9625000000000001 0 0  1.2375 0 0  1.1 0.1486128048780488 0  1.2375 0.41 0  1.65 0.1486128048780487 0  0.823495464168302 0.2603780552348366 0  0.3738707794507017 0.2720196349488618 0  0.3662291281331582 0.1311456406657909 0  1.676715909090909 0.2793064024390244 0  1.126715909090909 0.2793064024390244 0  1.348284090909091 0.2793064024390244 0  0.8287581077665108 0.1302150898054257 0  1.894702181800738 0.1282910975492754 0  2.092797818199262 0.1282910975492754 0  1.85625 0.3075 0  0 0.3075 0  0 0.1025 0  2.099172119769978 0.25625 0  0.4752414543992246 0.3180372603390748 0  1.99375 0.08395950269330846 0  1.459960956013612 0.3075 0  1.569025960719943 0.2986889805672169 0  1.03125 0.3278689922742084 0  1.959375 0.3126371951219512 0  1.749222215368287 0.1025 0  1.275777784631713 0.1025 0  0.9228016959331474 0.3075 0  1.000777784631713 0.1025 0  2.2 0.1025 0  1.225938124459196 0.3075 0  1.550777784631713 0.1025 0  1.44375 0.07430640243902442 0  1.16875 0.07430640243902439 0  0.7562500000000001 0.3358727844323386 0  0.89375 0 0  1.899250267340833 0.2229966846119207 0  0.61875 0.41 0  1.766482954545455 0.2934032012195123 0  1.046078563095834 0.2389031808701145 0  1.421109702350723 0.2261157654379721 0  0.07567171807980319 0.25625 0  0.2511897295290552 0.3235829392832554 0  0.07655002503762308 0.1488653460959645 0  0.1377245246847496 0.3206030474919778 0  0.6694099692696568 0.3242771941727899 0  0.9168971191497528 0.1295727156104653 0  0.7562500000000001 0 0  2.118919042110979 0.3422084711244843 0  2.13125 0 0  0.06875000000000001 0 0  1.30625 0.41 0  1.597888256393107 0.2173787389261347 0  0.34375 0.41 0  0.2493272016354703 0.08091360081773515 0  0.5588896233436766 0.3264056208677571 0  1.829299675393195 0.07400700849299596 0  0.1334079128307869 0.08523463035786674 0  1.71875 0.41 0  0.06875000000000001 0.41 0  1.16875 0.41 0  2.038220665644273 0.332420740103091 0  0.8810647413215221 0.2027360103977071 0  0.34375 0 0  0.7453891198966415 0.2471459041008237 0  0.42112093004955 0.1988123139090554 0  0.8314023090855964 0.3351170841770613 0  0.89375 0.41 0  0.7906250000000001 0.06615386481594063 0  1.452769549894695 0.1548122580621249 0  1.369219062229598 0.07430640243902442 0  1.30625 0 0  1.07420695807087 0.07430640243902439 0  1.720943423819132 0.1714577452753128 0  1.157188124459196 0.205 0  1.304056576180868 0.1714577452753128 0  1.67579304192913 0.07430640243902437 0  1.209670467133757 0.136210026696477 0  0.4312800784902823 0.08036147352247747 0  0.8723959680194693 0.07066860609690805 0  1.025335513626278 0.1700681449722324 0  0.7945632284247136 0.1940204203251442 0  0.378125 0.3452261501101892 0  0.3307109909790086 0.2037165635083759 0  0.3009701032039409 0.2702970083403109 0  0.20625 0.41 0  1.58125 0 0  0.4812500000000001 0 0  0.9838963872396855 0.2722244191167347 0  0.06772484939107212 0.3260067317374387 0  0.20625 0 0  1.58125 0.41 0  1.631724228912893 0.3381867502687533 0  1.825608881788174 0.14499488549201 0  1.85625 0 0  1.44375 0 0  1.44375 0.41 0  1.85625 0.41 0  2.13125 0.41 0  0.7562500000000001 0.41 0  0.4812500000000001 0.41 0  1.16875 0 0  1.03125 0.41 0  1.03125 0 0  1.71875 0 0  1.99375 0 0  1.99375 0.41 0  0.9408708167433545 0.0651989315768642 0  1.340625 0.3489494290853124 0  1.134375 0.3489494290853123 0  1.700180620188976 0.3438659752031281 0  0.29668452290037 0.1318471691375986 0  0.3175441051360096 0.06496934809856265 0  0.06509151636162461 0.08140814015999148 0  2.135782184673599 0.07126652247502523 0  1.668441847249787 0.2129203728327609 0  1.295782514339747 0.2378437748815763 0  1.409375 0.3520314716057996 0  2.129248544730567 0.1906135162504124 0  2.060771381434487 0.1989445750470348 0  2.013252586573865 0.1496169464686054 0  1.942766402200229 0.1734448904596831 0  1.895522487186454 0.06076163953489683 0  2.069553871656643 0.06605731020975725 0  0.4670911801404742 0.2498408582391372 0  0.7622743084658112 0.1264100838268133 0  1.274680914880868 0.3520219391081363 0  0.3148669572599245 0.3331753056385887 0  1.614713220494657 0.09473434380863296 0  1.72990325744076 0.2380068107952482 0  1.356580098625191 0.2120393231351682 0  2.034370752044885 0.2668681600792073 0  1.51768709249349 0.3426260931494756 0  1.561883724969884 0.1650446847858835 0  1.197344062229598 0.2523725417393646 0  1.804085235518364 0.3468178408964637 0  1.817887819205233 0.2589243285818559 0  1.905897727272727 0.3485060975609756 0  0.7296439733931823 0.06337466644369745 0  0.4250935971865949 0.1394919578475796 0  0.3773030136511669 0.05130372097998036 0  1.192836486056382 0.3562350748565544 0  1.1029124365364 0.226143510831178 0  1.28257088594801 0.2944411014911587 0  0.1905185804731426 0.06029880676029167 0  1.474860187679412 0.2504218616229368 0  1.406767003493824 0.2829282258560709 0  0.5209826960981064 0.2830664557824064 0  0.5131119502780163 0.3617405848213254 0  0.1948220106098172 0.3081993407644811 0  1.845656689180403 0.1998310418452388 0  2.144958525570388 0.2909790873294231 0  2.2 0.15375 0  0.8833025251326762 0.2625402923007629 0  0.171875 0.3653875762360952 0  1.57794966442982 0.3540357145964566 0  0.446875 0.366068291212731 0  0.4272051715206439 0.2891929346190664 0  1.508991196088596 0.1421783375065625 0  1.50436820029908 0.06143401634903343 0  1.223857000523521 0.08235548624535324 0  0.6137904613287555 0.3066826366281556 0  1.153316824384777 0.1289850171317838 0  0.9751573703656133 0.327632618473408 0  2.148922302309752 0.1258841779285271 0  0.9281250000000001 0.3643758685795699 0  1.621993280276081 0.2841214267927899 0  1.550118654119087 0.2461998729100966 0  1.327182649291491 0.1216967252533594 0  0.9939955742738924 0.04663549843168518 0  1.753125 0.04556020050186112 0  1.271875 0.04556020050186116 0  0.9734326767716519 0.1506854560854393 0  0.103125 0.3675775577080512 0  1.94956388244759 0.1180512551534177 0  1.949997712993411 0.04965831614304109 0  0.717433898748555 0.295596016333797 0  1.771961817615021 0.1530278789497521 0  1.909246823951428 0.2812757146784527 0  0 0.35875 0  1.050632804931928 0.1226269704412814 0  0.05695108326502596 0.2024009637347154 0  1.948575539857022 0.2445328248721197 0  1.697271520964565 0.1233917627620729 0  1.065625 0.3689344961371042 0  1.085849084308977 0.3170853572226867 0  0.1015495998772944 0.04226029099983852 0  1.577403511714593 0.05463601888079143 0  1.751571320346033 0.3651102912045228 0  2.2 0.35875 0  0.7441773632462837 0.1786786606458751 0  0 0.05125 0  1.466879772203159 0.3611261772912453 0  0.6282230348858767 0.3577675483994025 0  1.990280163552011 0.3564754268533217 0  1.17471064520912 0.2990917256188288 0  0 0.25625 0  2.2 0.25625 0  2.2 0.05125 0  0 0.15375 0  1.853978576207987 0.35875 0  1.515638456102889 0.2882700110184686 0  2.150453692751374 0.2387066338105111 0  1.323782677156475 0.04897634338873398 0  1.409375 0.03715320121951221 0  1.406484531114799 0.1087852750766809 0  1.134375 0.03715320121951219 0  0.721875 0.3729363922161693 0  0.7941695928236929 0.3696489254637395 0  0.7934827162619036 0.3013409431456604 0  1.627401732573545 0.04552157221025036 0  0.9352049974617431 0.2507047965699472 0  0.8763260682738339 0.3611103317460093 0  2.045405893604797 0.1105340662939892 0  1.255408269734577 0.1577307500159216 0  2.028125 0.03707597992059326 0  1.003030137506755 0.3689344961371042 0  1.248258025468107 0.2565907092181813 0  1.203125 0.03661323374043041 0  0.4800125512335631 0.0549472816999725 0  2.072662025974815 0.2975086504196739 0  0.240625 0.3729825336867542 0  1.113252391110535 0.10238286244357 0  1.071052763974265 0.1885202618768825 0  0.8738809401657862 0.3106483608284829 0  0.6786819423003397 0.2677558482644021 0  1.887722846421017 0.1760882698830035 0  1.472640588990488 0.1118278026240017 0  0.5843750000000001 0.41 0  1.865937103925594 0.2604137786483804 0  1.463913572748262 0.2030442564990043 0  1.376426316059077 0.3186741374914345 0  0.1038643885363755 0.2162701735320032 0  0.1769473813227781 0.1070849728467114 0  0.458787839809176 0.171541653775316 0  0.240625 0 0  0.04179569703428024 0.2877217852556549 0  0.1258346557601885 0.2699740073054968 0  1.722140693354707 0.282908100935778 0  0.41206179117512 0.2448172567039922 0  0.3702471778075604 0.2265217604228704 0  0.3714881805374215 0.1786967818665642 0  1.77397096061971 0.2481483237422926 0  2.105123889160691 0.03743885948498647 0  1.001138337938679 0.229719337663998 0  1.051242910646791 0.2854826559431138 0  1.395420985247586 0.18
[...]
<PointData  Vectors="f_37"> 
<DataArray  type="Float64"  Name="f_37"  NumberOfComponents="3" format="ascii">2.3594351049563382e-07 2.9758336292484062e-08 0.0000000000000000e+00  -4.4786669571330116e-06 -3.2670377932042624e-07 0.0000000000000000e+00  -7.3451881803813013e-07 7.9489495490686130e-10 0.0000000000000000e+00  -9.6207405462125904e-07 -2.6573682909973488e-10 0.0000000000000000e+00  -5.2912170567710258e-07 8.4412414194421156e-07 0.0000000000000000e+00  -1.3465597693840015e-07 5.9852118067782820e-07 0.0000000000000000e+00  2.9402043770434843e-07 3.0699145485572065e-07 0.0000000000000000e+00  -1.1227201859315504e-06 -4.9062080584534290e-07 0.0000000000000000e+00  -1.5536470131647394e-06 1.0906793760385314e-07 0.0000000000000000e+00  2.4932304200175906e-07 4.7249398270455836e-08 0.0000000000000000e+00  -7.4960764682573799e-07 -5.2190797455300828e-07 0.0000000000000000e+00  -1.1722053913385080e-06 -3.4077831106515984e-07 0.0000000000000000e+00  1.0623978059374596e-06 -5.0595533655406880e-07 0.0000000000000000e+00  -6.7794574991773451e-07 -2.0513956622102807e-06 0.0000000000000000e+00  -8.3482579290136228e-07 -1.1518624965966901e-06 0.0000000000000000e+00  -2.5341248269243396e-06 -3.8151139413219971e-08 0.0000000000000000e+00  1.4455197959693277e-06 1.3535034194130785e-06 0.0000000000000000e+00  3.2527937909044369e-01 9.1274253869628022e-02 0.0000000000000000e+00  5.7088446832403624e-06 3.5312347822025755e-06 0.0000000000000000e+00  5.9416030692817740e-06 -1.2176245064759162e-07 0.0000000000000000e+00  -2.2022149002512013e-06 -1.2363069269312592e-06 0.0000000000000000e+00  -2.1315838562329632e-07 1.7312909041725826e-06 0.0000000000000000e+00  2.4283729385065509e-06 1.3015122476935552e-06 0.0000000000000000e+00  1.8942401332940339e-06 -3.4083704428254061e-06 0.0000000000000000e+00  -2.9602462683812997e-06 -3.6041808878563969e-06 0.0000000000000000e+00  -5.5597777373657282e-06 -1.2897920978205642e-06 0.0000000000000000e+00  -4.8276370975379654e-06 -2.4424794045919501e-07 0.0000000000000000e+00  7.1570272019759447e-07 -1.5092431841861043e-07 0.0000000000000000e+00  -3.3604664471358901e-06 5.1497367807840694e-07 0.0000000000000000e+00  1.6583340710758432e-01 -3.2714612988127468e-07 0.0000000000000000e+00  -7.2685779171824261e-07 -1.6173385957343617e-07 0.0000000000000000e+00  5.2814816809038644e-06 3.3976740986543541e-06 0.0000000000000000e+00  -1.2153056940073111e-06 1.3122184558696204e-07 0.0000000000000000e+00  4.3410471008466014e-07 1.0779863894139657e-07 0.0000000000000000e+00  1.8146211446686232e-06 -4.2351110569077760e-07 0.0000000000000000e+00  -7.7228241058815515e-07 2.2096930635525342e-07 0.0000000000000000e+00  -9.9537181688096749e-07 1.0692938417876474e-08 0.0000000000000000e+00  -2.5083461915551417e-06 -5.1808710596010579e-07 0.0000000000000000e+00  -8.9712913195567492e-06 -1.9004419241650432e-07 0.0000000000000000e+00  -1.0870593923545801e-06 -1.8865542590817210e-09 0.0000000000000000e+00  -1.4048147314836084e-06 -2.9504520745995599e-09 0.0000000000000000e+00  -6.3126018894182768e-07 -1.3435301223691767e-08 0.0000000000000000e+00  -5.4395552892687526e-07 -1.5632576813805405e-08 0.0000000000000000e+00  -5.7512675326240939e-07 -1.8386335817723126e-10 0.0000000000000000e+00  -9.5751207605584609e-08 -5.6591899773132951e-10 0.0000000000000000e+00  2.1063213351800628e-01 5.9823984940991684e-04 0.0000000000000000e+00  2.1062878214267713e-01 8.3779204530940374e-05 0.0000000000000000e+00  2.5236549919069062e-01 -1.1106726647077957e-01 0.0000000000000000e+00  2.1507909527262961e-01 -5.3791091061809685e-03 0.0000000000000000e+00  2.1064908196760365e-01 -5.4512800781520726e-06 0.0000000000000000e+00  2.1056990121735750e-01 1.3441633231745684e-05 0.0000000000000000e+00  5.4855647865256797e-07 1.4363709919510516e-08 0.0000000000000000e+00  1.2388842377204327e-07 8.3668910849105981e-10 0.0000000000000000e+00  -6.4688151954559582e-07 1.3136823806241295e-09 0.0000000000000000e+00  1.9188368904063502e-01 -2.4398737065332897e-06 0.0000000000000000e+00  -9.3651513091515122e-07 -8.8944036956736601e-10 0.0000000000000000e+00  2.0791515784346834e-01 5.5914788675159031e-04 0.0000000000000000e+00  -1.3860441764322408e-06 -6.6524372884755553e-09 0.0000000000000000e+00  -1.1384015461576391e-06 -1.2167247166752607e-09 0.0000000000000000e+00  -7.2447612399982245e-07 -6.6380200906403631e-09 0.0000000000000000e+00  1.4215669093620403e-06 3.9788078021360518e-07 0.0000000000000000e+00  -3.9707630813588008e-07 -2.0716103829330707e-07 0.0000000000000000e+00  -9.3265785370852123e-07 -8.6461577135103182e-08 0.0000000000000000e+00  -2.5249239007354231e-07 -1.2224333579508340e-07 0.0000000000000000e+00  -2.0849594171371342e-06 -2.2936331671527996e-07 0.0000000000000000e+00  -2.5618440233791605e-07 1.9329856334608813e-07 0.0000000000000000e+00  6.2930963672751625e-07 6.3132015612057339e-08 0.0000000000000000e+00  1.9066008065346321e-01 -5.9009085282341001e-02 0.0000000000000000e+00  -1.2153519839513404e-06 -8.1366992873707246e-08 0.0000000000000000e+00  2.0788392399419192e-01 2.2538423329817410e-04 0.0000000000000000e+00  3.1879016437458324e-01 -6.0170337423611150e-02 0.0000000000000000e+00  9.4489900252728021e-02 1.3677098054179157e-03 0.0000000000000000e+00  3.1256162874922327e-01 1.1700835309664234e-01 0.0000000000000000e+00  2.0405206672947349e-01 1.7347134794633176e-04 0.0000000000000000e+00  2.3056412876923404e-01 -5.8479737708292531e-03 0.0000000000000000e+00  2.0401528032131697e-01 1.3432194797849014e-03 0.0000000000000000e+00  4.0639465140634254e-02 5.8134781764574955e-02 0.0000000000000000e+00  2.0349538926073241e-01 3.1271686769566833e-05 0.0000000000000000e+00  2.0344843474011029e-01 1.0171311819487541e-05 0.0000000000000000e+00  1.9185555595165829e-01 2.5671818975600622e-05 0.0000000000000000e+00  7.5234893960187552e-02 -1.5026896542291761e-08 0.0000000000000000e+00  2.7319256696544608e-01 1.2061687767686340e-07 0.0000000000000000e+00  2.0843409367321303e-01 2.6533507298678989e-06 0.0000000000000000e+00  2.3830390621990050e-01 7.7955370651312680e-02 0.0000000000000000e+00  1.7670722419000787e-01 7.2766130657902963e-06 0.0000000000000000e+00  1.9111946997767462e-01 7.1423552185721599e-04 0.0000000000000000e+00  1.9652991744186984e-01 3.5684965535443029e-04 0.0000000000000000e+00  1.9940950528049900e-01 -2.0972343950354560e-02 0.0000000000000000e+00  1.8837091596196034e-01 3.7090350279452190e-06 0.0000000000000000e+00  1.9197028128373084e-01 6.7866958724436825e-05 0.0000000000000000e+00  1.9133356988533784e-01 -1.4271895698314456e-03 0.0000000000000000e+00  3.6050241250590864e-01 -8.3394075639453488e-02 0.0000000000000000e+00  8.3787307031413891e-02 -5.3214296782440801e-02 0.0000000000000000e+00  1.9186330136979232e-01 -2.3062233275564287e-06 0.0000000000000000e+00  1.9171640364034681e-01 3.9974989571365917e-03 0.0000000000000000e+00  1.9224758226760782e-01 3.7652026061114522e-04 0.0000000000000000e+00  1.6691483140896826e-01 5.6075534752307945e-04 0.0000000000000000e+00  1.5620460445782008e-01 -9.8657255088041088e-03 0.0000000000000000e+00  4.3313744287830891e-01 -5.1127540553455600e-02 0.0000000000000000e+00  2.1626736616864433e-06 -4.5923082749331315e-07 0.0000000000000000e+00  2.1044238292396311e-01 3.1553451471946593e-05 0.0000000000000000e+00  -1.1749197216512422e-06 3.4564837045461783e-08 0.0000000000000000e+00  1.9920859271374583e-01 8.1869424543679046e-05 0.0000000000000000e+00  2.9718967874639129e-01 -8.2325719313841209e-02 0.0000000000000000e+00  2.1037716082672051e-01 8.3148541721598038e-04 0.0000000000000000e+00  1.2549854000161059e-01 7.0724719727517996e-02 0.0000000000000000e+00  2.3081992421228109e-01 1.6385580251581190e-02 0.0000000000000000e+00  2.0890181539807398e-01 2.4059399843877467e-02 0.0000000000000000e+00  1.4755712756925859e-01 7.2341527501416952e-02 0.0000000000000000e+00  4.6661422340120595e-01 -1.7975297651626667e-02 0.0000000000000000e+00  5.3031721266331280e-02 -1.6745517606382800e-02 0.0000000000000000e+00  3.8256325620114074e-07 -3.1821452348338443e-07 0.0000000000000000e+00  1.5710140566948236e-01 2.7360713433318411e-06 0.0000000000000000e+00  -1.8157838623624489e-06 -3.5706219329242534e-09 0.0000000000000000e+00  -1.3699313741311327e-06 1.2800299530955492e-08 0.0000000000000000e+00  -6.4346610276866728e-07 -1.1900098047581965e-08 0.0000000000000000e+00  2.1049900139968744e-01 3.6907614423418772e-04 0.0000000000000000e+00  -1.9565497487043895e-06 -9.9314274201152193e-08 0.0000000000000000e+00  4.0432099740645350e-01 4.4929302425179792e-02 0.0000000000000000e+00  3.8511095565684167e-01 8.5034517792266770e-02 0.0000000000000000e+00  1.6549058128353469e-01 7.4274252229664939e-06 0.0000000000000000e+00  3.4392626886649957e-01 1.3117912219034652e-02 0.0000000000000000e+00  -1.1462936377025679e-06 -1.6669128773154170e-09 0.0000000000000000e+00  -1.8355515664992090e-07 -9.9668274857654268e-08 0.0000000000000000e+00  -1.9218214237164737e-06 -2.0580695427333356e-07 0.0000000000000000e+00  1.6975020108738284e-01 -4.0712302614264409e-06 0.0000000000000000e+00  1.7313744501026540e-01 -3.6055907781479928e-02 0.0000000000000000e+00  -4.0790550953130016e-07 -6.1694885480851304e-08 0.0000000000000000e+00  1.6084538541729634e-01 -2.2977711338980938e-02 0.0000000000000000e+00  1.7520563170266329e-01 1.6728613652633501e-01 0.0000000000000000e+00  3.8208783299109117e-01 -5.9129557703009372e-02 0.0000000000000000e+00  1.9085033540695098e-06 -8.8709557157317946e-08 0.0000000000000000e+00  8.5179221098049485e-02 5.0055059757164469e-02 0.0000000000000000e+00  2.0878863124313291e-01 7.4483271642062092e-04 0.0000000000000000e+00  1.6743838298505842e-01 6.6214124563423462e-04 0.0000000000000000e+00  3.0416393958234297e-07 -3.2726767624066879e-10 0.0000000000000000e+00  1.1771375182493238e-01 -2.9345191126691688e-02 0.0000000000000000e+00  2.0987704351483322e-01 1.3686799504119873e-04 0.0000000000000000e+00  2.2803515280404393e-01 -2.4775997629993336e-02 0.0000000000000000e+00  2.1003666894617717e-01 -1.2569386416692719e-03 0.0000000000000000e+00  1.6595163430349621e-01 9.8052431942220871e-05 0.0000000000000000e+00  2.0140618055285264e-01 -1.1415146820095697e-02 0.0000000000000000e+00  2.2380201077132361e-01 2.7141857463904455e-02 0.0000000000000000e+00  3.3352879922321867e-02 1.4854951367990775e-02 0.0000000000000000e+00  1.9590548656803361e-01 -1.0230658360901476e-01 0.0000000000000000e+00  4.8810744399408100e-02 3.7176327881330712e-02 0.0000000000000000e+00  2.1087135561886186e-01 6.7270943720658376e-03 0.0000000000000000e+00  4.4078141477594444e-02 1.2380493570696776e-02 0.0000000000000000e+00  9.6255459984189704e-02 -2.3708009261817192e-02 0.0000000000000000e+00  -4.8972900987603889e-07 6.9820214116302634e-08 0.0000000000000000e+00  -6.0374448164204571e-07 -4.8300950019254289e-09 0.0000000000000000e+00  2.3343842134680623e-07 1.6000576306844444e-07 0.0000000000000000e+00  3.4475156997430290e-01 -9.8547457365591465e-02 0.0000000000000000e+00  7.8031686210466286e-02 3.1030061041867445e-02 0.0000000000000000e+00  -2.2458204392437188e-06 -1.0548819846129135e-07 0.0000000000000000e+00  -7.9936483697353133e-07 -2.8594059296501920e-09 0.0000000000000000e+00  1.6234848118031761e-01 1.4107227063883543e-04 0.0000000000000000e+00  2.0719879576616357e-01 4.7397513739982948e-05 0.0000000000000000e+00  -8.0201247661967083e-07 5.3851877039656167e-11 0.0000000000000000e+00  -9.2415060241907150e-07 -1.1844317370989545e-08 0.0000000000000000e+00  -1.0137810047238799e-06 -1.2930344569705795e-08 0.0000000000000000e+00  -1.9010384231016751e-07 1.7385850944124941e-10 0.0000000000000000e+00  -1.4662572510830591e-07 -4.0484293552191391e-10 0.0000000000000000e+00  9.0033240727039908e-07 -2.4881311994018619e-07 0.0000000000000000e+00  -2.2063409322388927e-06 -1.8500492757806786e-08 0.0000000000000000e+00  -1.4372497898662846e-06 3.2246364458953798e-07 0.0000000000000000e+00  2.0939728298420941e-06 4.9402576585492902e-07 0.0000000000000000e+00  -2.7596347965362242e-06 2.9286970125251130e-07 0.0000000000000000e+00  1.2538366655441757e-07 -1.5058672727343217e-09 0.0000000000000000e+00  -1.0461654166052179e-06 1.0929375358663317e-09 0.0000000000000000e+00  -3.7258500112652306e-07 -4.0974981059437501e-10 0.0000000000000000e+00  3.1464859278347412e-02 -1.2070719094379758e-02 0.0000000000000000e+00  1.4422185182647140e-01 1.0983455252057488e-03 0.0000000000000000e+00  1.3379141159011163e-01 5.6307163157461523e-03 0.0000000000000000e+00  1.5458491636335059e-01 6.3616723805718888e-05 0.0000000000000000e+00  2.9784982037709273e-01 8.0084863215676358e-02 0.0000000000000000e+00  3.3260476701250752e-01 5.7192823006619431e-02 0.0000000000000000e+00  3.1544561473118909e-01 2.6238981010477697e-02 0.0000000000000000e+00  1.6187208790115765e-01 1.0620106733699700e-05 0.0000000000000000e+00  2.1057496873779652e-01 2.2581076298965462e-04 0.0000000000000000e+00  2.1186644556627199e-01 1.3643123940541854e-04 0.0000000000000000e+00  1.4018647567778802e-01 5.9287841783522077e-04 0.0000000000000000e+00  2.1052534338356799e-01 1.0391549872614204e-06 0.0000000000000000e+00  2.1061401955415868e-01 2.8432460997376299e-06 0.0000000000000000e+00  2.0787637981085216e-01 6.8805331839409564e-06 0.0000000000000000e+00  2.0996148701901785e-01 1.7663642560398061e-05 0.0000000000000000e+00  1.4650303356630437e-01 5.0121737576115159e-06 0.0000000000000000e+00  1.5458549043930642e-01 1.2121927142514448e-05 0.0000000000000000e+00  2.1364810818781987e-01 2.0847691568197108e-01 0.0000000000000000e+00  3.4744038591535881e-02 7.3260931930748743e-02 0.0000000000000000e+00  1.3734746153215502e-01 1.8974508844432315e-03 0.0000000000000000e+00  2.1806513379946632e-01 -2.6754885395489474e-03 0.0000000000000000e+00  1.8666305825338889e-01 2.0948509244867193e-04 0.0000000000000000e+00  2.0985258624850334e-01 1.2997783545045971e-04 0.0000000000000000e+00  2.1103578625704647e-01 4.9675896825921058e-04 0.0000000000000000e+00  2.0693912752490526e-01 7.8092548924892100e-06 0.0000000000000000e+00  1.5579941097328934e-01 3.1751841880290130e-04 0.0000000000000000e+00  2.0959547612037532e-01 4.4300474676887020e-04 0.0000000000000000e+00  2.2089388375339197e-01 -2.6508797787985301e-03 0.0000000000000000e+00  1.5022589093252642e-01 1.7423950728172759e-05 0.0000000000000000e+00  2.0806834939202828e-01 5.7642654304192676e-05 0.0000000000000000e+00  1.4762104277391858e-01 7.2954061883457492e-06 0.0000000000000000e+00  1.4619626811133243e-01 8.2127403513460553e-02 0.0000000000000000e+00  2.5068058042935853e-01 1.3929716992636748e-01 0.0000000000000000e+00  2.0782379757397265e-01 3.2821564814249332e-02 0.0000000000000000e+00  1.2509988787504434e-01 3.8930696020811938e-03 0.0000000000000000e+00  2.5761176803346281e-01 -4.6044810583904215e-02 0.0000000000000000e+00  1.9890245468624693e-01 2.2089026155725096e-03 0.0000000000000000e+00  3.9264378633180214e-01 1.8726556354296243e-02 0.0000000000000000e+00  2.0880936244461004e-01 7.3881390245681192e-04 0.0000000000000000e+00  2.0259936113132632e-01 1.0386506864015666e-03 0.0000000000000000e+00  3.5198303008627274e-01 1.9610113290941003e-01 0.0000000000000000e+00  2.8078033979748357e-01 3.9317170726932069e-02 0.0000000000000000e+00  2.3188489411246918e-01 7.1767506356764529e-02 0.0000000000000000e+00  2.1061280519996906e-01 5.3416573824869136e-05 0.0000000000000000e+00  2.0033717136714257e-01 -1.1222611278091642e-05 0.0000000000000000e+00  2.0843182606214233e-01 -1.9690510862922841e-06 0.0000000000000000e+00  3.6787573655441869e-01 -9.3960863272239889e-02 0.0000000000000000e+00  1.2361383504490350e-01 2.4579447671295204e-02 0.0000000000000000e+00  1.3798696744071781e-01 1.6126292081112151e-04 0.0000000000000000e+00  2.1054661980231099e-01 2.1199266716572764e-02 0.0000000000000000e+00  1.5037787813791584e-01 5.2359937001970704e-02 0.0000000000000000e+00  2.0700984419515484e-01 5.9016933625551072e-04 0.0000000000000000e+00  1.4834181636160632e-01 3.0889334144211940e-04 0.0000000000000000e+00  1.7265326360330627e-01 -3.9987549515144421e-03 0.0000000000000000e+00  4.7009790638731186e-01 4.4054698932487445e-02 0.0000000000000000e+00  1.9067153372070419e-01 -2.7370273399252847e-02 0.0000000000000000e+00  2.4798018265314320e-01 -4.5257710478318391e-02 0.0000000000000000e+00  2.0274250784125059e-01 1.1404790654072381e-05 0.0000000000000000e+00  1.6295536132967312e-01 -2.0114412661706542e-02 0.0000000000000000e+00  2.0250804235877679e-01 2.5628783630051214e-04 0.0000000000000000e+00  2.0920990313559618e-01 4.8029598480047256e-04 0.0000000000000000e+00  2.0138519525587961e-01 8.8472406202245477e-06 0.0000000000000000e+00  4.1402808331333828e-02 -1.5117508600458114e-02 0.0000000000000000e+00  1.1880638168462695e-01 2.5123782373522257e-05 0.0000000000000000e+00  1.2128939458901329e-01 -6.6586865633771344e-05 0.0000000000000000e+00  1.2198221417577412e-01 -7.9474363761536951e-02 0.0000000000000000e+00  6.2455166560125230e-02 1.6901283886312075e-02 0.0000000000000000e+00  1.9986282972966091e-01 1.3590493992351589e-05 0.0000000000000000e+00  1.2687910973933489e-01 5.0009865446991210e-06 0.0000000000000000e+00  4.1106926253990861e-01 -4.9107147940456612e-02 0.0000000000000000e+00  2.0835691385789093e-01 8.2124720447637449e-05 0.0000000000000000e+00  2.0357454310352233e-01 1.3350901148679242e-05 0.0000000000000000e+00  3.5785395154481085e-02 -2.3827217207664007e-09 0.0000000000000000e+00  1.3944933146483518e-01 -6.8026147078553326e-02 0.0000000000000000e+00  1.5899198538394635e-01 4.1780015990940611e-02 0.0000000000000000e+00  2.0948980665766720e-01 2.4290877294503939e-05 0.0000000000000000e+00  2.0204098073465696e-01 1.3954021097930318e-04 0.0000000000000000e+00  8.8026000163926879e-02 1.8984424641717168e-04 0.0000000000000000e+00  1.9637230324575994e-01 -4.2207140472056755e-03 0.0000000000000000e+00  3.8098426495014642e-01 3.5638999726716983e-02 0.0000000000000000e+00  1.3651447570364600e-01 1.5406986576109303e-04 0.0000000000000000e+00  1.1727777235412397e-01 2.4490747586015161e-05 0.0000000000000000e+00  1.2981039843995065e-01 -2.0559221830978439e-06 0.0000000000000000e+00  -2.6857878794678725e-03 4.2853781911214597e-02 0.0000000000000000e+00  3.3356381558466525e-01 9.6130424683935553e-08 0.0000000000000000e+00  1.2424481410741646e-01 3.1261080755462279e-04 0.0000000000000000e+00  4.0554587553559907e-01 3.4894180779206927e-03 0.0000000000000000e+00  1.3406106280104588e-01 1.2549020229712916e-06 0.0000000000000000e+00  2.0190592718545972e-01 4.7876316509071109e-03 0.0000000000000000e+00  1.1852652592033476e-01 1.0583490247347162e-08 0.0000000000000000e+00  2.0843946348331044e-01 7.0560295577880975e-06 0.0000000000000000e+00  1.2983442643704832e-01 1.1548768359956061e-05 0.0000000000000000e+00  2.1733314184185668e-01 9.2277769289970741e-08 0.0000000000000000e+00  1.2984029442414860e-01 5.1565228260942156e-06 0.0000000000000000e+00  2.0093022578726377e-01 5.5242102832674534e-04 0.0000000000000000e+00  2.0985946706081465e-01 4.1783346981093060e-06 0.0000000000000000e+00  1.2801666622559385e-01 3.8782737720199207e-04 0.0000000000000000e+00  1.0217148863814327e-01 2.8876627004733912e-04 0.0000000000000000e+00  1.9632648852333925e-01 7.6419529348369195e-04 0.0000000000000000e+00  9.0914847719562764e-02 -5.1839188955336950e-03 0.0000000000000000e+00  3.1636727820444172e-01 -2.1536910264016638e-02 0.0000000000000000e+00  2.6943273591637656e-01 -2.5250810179527790e-02 0.0000000000000000e+00  4.2668175818247367e-01 -6.9005922837026279e-02 0.0000000000000000e+00  1.1890956071392425e-01 7.1754851087997703e-05 0.0000000000000000e+00  3.5423678356511512e-01 -1.1417391589954042e-01 0.0000000000000000e+00  2.2797855100058428e-01 -2.8847826351959257e-02 0.0000000000000000e+00  1.9646297520772138e-01 1.4123346927476695e-05 0.0000000000000000e+00  2.0830581739184253e-01 -4.8866079102740743e-03 0.0000000000000000e+00  1.0046001027242812e-01 8.8826936175022648e-06 0.0000000000000000e+00  1.0054581821359840e-01 -7.8907884569300972e-03 0.0000000000000000e+00  2.1297845147164829e-01 3.2768884950256787e-0