<?xml version="1.0"?>
<VTKFile type="UnstructuredGrid"  version="0.1"  >
<UnstructuredGrid>
<Piece  NumberOfPoints="1404" NumberOfCells="2604">
<Points>
<DataArray  type="Float64"  NumberOfComponents="3"  format="ascii">0 0.41 0  0 0 0  2.2 0 0  2.2 0.41 0  0.2353553390593274 0.2353553390593274 0  0.25 0.2 0  0.2353553390593274 0.1646446609406726 0  0.2 0.15 0  0.1646446609406726 0.1646446609406726 0  0.15 0.2 0  0.1646446609406726 0.2353553390593274 0  0.2 0.25 0  0.6923879532511287 0.188268343236509 0  0.7 0.15 0  0.6923879532511287 0.1117316567634909 0  0.6707106781186547 0.07928932188134523 0  0.6382683432365089 0.05761204674887133 0  0.6 0.04999999999999999 0  0.5617316567634909 0.05761204674887134 0  0.5292893218813453 0.07928932188134524 0  0.5076120467488713 0.111731656763491 0  0.5 0.15 0  0.5076120467488713 0.188268343236509 0  0.5292893218813453 0.2207106781186547 0  0.561731656763491 0.2423879532511287 0  0.6 0.25 0  0.6382683432365089 0.2423879532511287 0  0.6707106781186547 0.2207106781186547 0  1.1 0 0  0 0.205 0  1.1 0.41 0  0.55 0 0  0.55 0.41 0  0.275 0 0  0.8250000000000001 0 0  0.275 0.41 0  0.8250000000000001 0.41 0  0.6875 0 0  0.61875 0 0  1.65 0.41 0  1.65 0 0  1.375 0 0  1.375 0.41 0  1.925 0 0  1.925 0.41 0  1.5125 0.205 0  1.7875 0.205 0  0.9625000000000001 0.205 0  1.2375 0.205 0  2.2 0.205 0  1.99375 0.2152743902439024 0  0.4125 0.41 0  2.0625 0 0  2.0625 0.41 0  2.2 0.3075 0  1.7875 0.41 0  1.375 0.1486128048780488 0  1.5125 0 0  1.7875 0 0  1.5125 0.41 0  0.9625000000000001 0.41 0  0.4125 0 0  0.1375 0 0  0.1375 0.41 0  0.6875 0.41 0  0.9625000000000001 0 0  1.2375 0 0  1.1 0.1486128048780488 0  1.2375 0.41 0  1.65 0.1486128048780487 0  0.823495464168302 0.2603780552348366 0  0.3738707794507017 0.2720196349488618 0  0.3662291281331582 0.1311456406657909 0  1.676715909090909 0.2793064024390244 0  1.126715909090909 0.2793064024390244 0  1.348284090909091 0.2793064024390244 0  0.8287581077665108 0.1302150898054257 0  1.894702181800738 0.1282910975492754 0  2.092797818199262 0.1282910975492754 0  1.85625 0.3075 0  0 0.3075 0  0 0.1025 0  2.099172119769978 0.25625 0  0.4752414543992246 0.3180372603390748 0  1.99375 0.08395950269330846 0  1.459960956013612 0.3075 0  1.569025960719943 0.2986889805672169 0  1.03125 0.3278689922742084 0  1.959375 0.3126371951219512 0  1.749222215368287 0.1025 0  1.275777784631713 0.1025 0  0.9228016959331474 0.3075 0  1.000777784631713 0.1025 0  2.2 0.1025 0  1.225938124459196 0.3075 0  1.550777784631713 0.1025 0  1.44375 0.07430640243902442 0  1.16875 0.07430640243902439 0  0.7562500000000001 0.3358727844323386 0  0.89375 0 0  1.899250267340833 0.2229966846119207 0  0.61875 0.41 0  1.766482954545455 0.2934032012195123 0  1.046078563095834 0.2389031808701145 0  1.421109702350723 0.2261157654379721 0  0.07567171807980319 0.25625 0  0.2511897295290552 0.3235829392832554 0  0.07655002503762308 0.1488653460959645 0  0.1377245246847496 0.3206030474919778 0  0.6694099692696568 0.3242771941727899 0  0.9168971191497528 0.1295727156104653 0  0.7562500000000001 0 0  2.118919042110979 0.3422084711244843 0  2.13125 0 0  0.06875000000000001 0 0  1.30625 0.41 0  1.597888256393107 0.2173787389261347 0  0.34375 0.41 0  0.2493272016354703 0.08091360081773515 0  0.5588896233436766 0.3264056208677571 0  1.829299675393195 0.07400700849299596 0  0.1334079128307869 0.08523463035786674 0  1.71875 0.41 0  0.06875000000000001 0.41 0  1.16875 0.41 0  2.038220665644273 0.332420740103091 0  0.8810647413215221 0.2027360103977071 0  0.34375 0 0  0.7453891198966415 0.2471459041008237 0  0.42112093004955 0.1988123139090554 0  0.8314023090855964 0.3351170841770613 0  0.89375 0.41 0  0.7906250000000001 0.06615386481594063 0  1.452769549894695 0.1548122580621249 0  1.369219062229598 0.07430640243902442 0  1.30625 0 0  1.07420695807087 0.07430640243902439 0  1.720943423819132 0.1714577452753128 0  1.157188124459196 0.205 0  1.304056576180868 0.1714577452753128 0  1.67579304192913 0.07430640243902437 0  1.209670467133757 0.136210026696477 0  0.4312800784902823 0.08036147352247747 0  0.8723959680194693 0.07066860609690805 0  1.025335513626278 0.1700681449722324 0  0.7945632284247136 0.1940204203251442 0  0.378125 0.3452261501101892 0  0.3307109909790086 0.2037165635083759 0  0.3009701032039409 0.2702970083403109 0  0.20625 0.41 0  1.58125 0 0  0.4812500000000001 0 0  0.9838963872396855 0.2722244191167347 0  0.06772484939107212 0.3260067317374387 0  0.20625 0 0  1.58125 0.41 0  1.631724228912893 0.3381867502687533 0  1.825608881788174 0.14499488549201 0  1.85625 0 0  1.44375 0 0  1.44375 0.41 0  1.85625 0.41 0  2.13125 0.41 0  0.7562500000000001 0.41 0  0.4812500000000001 0.41 0  1.16875 0 0  1.03125 0.41 0  1.03125 0 0  1.71875 0 0  1.99375 0 0  1.99375 0.41 0  0.9408708167433545 0.0651989315768642 0  1.340625 0.3489494290853124 0  1.134375 0.3489494290853123 0  1.700180620188976 0.3438659752031281 0  0.29668452290037 0.1318471691375986 0  0.3175441051360096 0.06496934809856265 0  0.06509151636162461 0.08140814015999148 0  2.135782184673599 0.07126652247502523 0  1.668441847249787 0.2129203728327609 0  1.295782514339747 0.2378437748815763 0  1.409375 0.3520314716057996 0  2.129248544730567 0.1906135162504124 0  2.060771381434487 0.1989445750470348 0  2.013252586573865 0.1496169464686054 0  1.942766402200229 0.1734448904596831 0  1.895522487186454 0.06076163953489683 0  2.069553871656643 0.06605731020975725 0  0.4670911801404742 0.2498408582391372 0  0.7622743084658112 0.1264100838268133 0  1.274680914880868 0.3520219391081363 0  0.3148669572599245 0.3331753056385887 0  1.614713220494657 0.09473434380863296 0  1.72990325744076 0.2380068107952482 0  1.356580098625191 0.2120393231351682 0  2.034370752044885 0.2668681600792073 0  1.51768709249349 0.3426260931494756 0  1.561883724969884 0.1650446847858835 0  1.197344062229598 0.2523725417393646 0  1.804085235518364 0.3468178408964637 0  1.817887819205233 0.2589243285818559 0  1.905897727272727 0.3485060975609756 0  0.7296439733931823 0.06337466644369745 0  0.4250935971865949 0.1394919578475796 0  0.3773030136511669 0.05130372097998036 0  1.192836486056382 0.3562350748565544 0  1.1029124365364 0.226143510831178 0  1.28257088594801 0.2944411014911587 0  0.1905185804731426 0.06029880676029167 0  1.474860187679412 0.2504218616229368 0  1.406767003493824 0.2829282258560709 0  0.5209826960981064 0.2830664557824064 0  0.5131119502780163 0.3617405848213254 0  0.1948220106098172 0.3081993407644811 0  1.845656689180403 0.1998310418452388 0  2.144958525570388 0.2909790873294231 0  2.2 0.15375 0  0.8833025251326762 0.2625402923007629 0  0.171875 0.3653875762360952 0  1.57794966442982 0.3540357145964566 0  0.446875 0.366068291212731 0  0.4272051715206439 0.2891929346190664 0  1.508991196088596 0.1421783375065625 0  1.50436820029908 0.06143401634903343 0  1.223857000523521 0.08235548624535324 0  0.6137904613287555 0.3066826366281556 0  1.153316824384777 0.1289850171317838 0  0.9751573703656133 0.327632618473408 0  2.148922302309752 0.1258841779285271 0  0.9281250000000001 0.3643758685795699 0  1.621993280276081 0.2841214267927899 0  1.550118654119087 0.2461998729100966 0  1.327182649291491 0.1216967252533594 0  0.9939955742738924 0.04663549843168518 0  1.753125 0.04556020050186112 0  1.271875 0.04556020050186116 0  0.9734326767716519 0.1506854560854393 0  0.103125 0.3675775577080512 0  1.94956388244759 0.1180512551534177 0  1.949997712993411 0.04965831614304109 0  0.717433898748555 0.295596016333797 0  1.771961817615021 0.1530278789497521 0  1.909246823951428 0.2812757146784527 0  0 0.35875 0  1.050632804931928 0.1226269704412814 0  0.05695108326502596 0.2024009637347154 0  1.948575539857022 0.2445328248721197 0  1.697271520964565 0.1233917627620729 0  1.065625 0.3689344961371042 0  1.085849084308977 0.3170853572226867 0  0.1015495998772944 0.04226029099983852 0  1.577403511714593 0.05463601888079143 0  1.751571320346033 0.3651102912045228 0  2.2 0.35875 0  0.7441773632462837 0.1786786606458751 0  0 0.05125 0  1.466879772203159 0.3611261772912453 0  0.6282230348858767 0.3577675483994025 0  1.990280163552011 0.3564754268533217 0  1.17471064520912 0.2990917256188288 0  0 0.25625 0  2.2 0.25625 0  2.2 0.05125 0  0 0.15375 0  1.853978576207987 0.35875 0  1.515638456102889 0.2882700110184686 0  2.150453692751374 0.2387066338105111 0  1.323782677156475 0.04897634338873398 0  1.409375 0.03715320121951221 0  1.406484531114799 0.1087852750766809 0  1.134375 0.03715320121951219 0  0.721875 0.3729363922161693 0  0.7941695928236929 0.3696489254637395 0  0.7934827162619036 0.3013409431456604 0  1.627401732573545 0.04552157221025036 0  0.9352049974617431 0.2507047965699472 0  0.8763260682738339 0.3611103317460093 0  2.045405893604797 0.1105340662939892 0  1.255408269734577 0.1577307500159216 0  2.028125 0.03707597992059326 0  1.003030137506755 0.3689344961371042 0  1.248258025468107 0.2565907092181813 0  1.203125 0.03661323374043041 0  0.4800125512335631 0.0549472816999725 0  2.072662025974815 0.2975086504196739 0  0.240625 0.3729825336867542 0  1.113252391110535 0.10238286244357 0  1.071052763974265 0.1885202618768825 0  0.8738809401657862 0.3106483608284829 0  0.6786819423003397 0.2677558482644021 0  1.887722846421017 0.1760882698830035 0  1.472640588990488 0.1118278026240017 0  0.5843750000000001 0.41 0  1.865937103925594 0.2604137786483804 0  1.463913572748262 0.2030442564990043 0  1.376426316059077 0.3186741374914345 0  0.1038643885363755 0.2162701735320032 0  0.1769473813227781 0.1070849728467114 0  0.458787839809176 0.171541653775316 0  0.240625 0 0  0.04179569703428024 0.2877217852556549 0  0.1258346557601885 0.2699740073054968 0  1.722140693354707 0.282908100935778 0  0.41206179117512 0.2448172567039922 0  0.3702471778075604 0.2265217604228704 0  0.3714881805374215 0.1786967818665642 0  1.77397096061971 0.2481483237422926 0  2.105123889160691 0.03743885948498647 0  1.001138337938679 0.229719337663998 0  1.051242910646791 0.2854826559431138 0  1.395420985247586 0.18
[...]
<PointData  Vectors="f_37"> 
<DataArray  type="Float64"  Name="f_37"  NumberOfComponents="3" format="ascii">1.6025982558800075e-07 -8.8733368851878031e-08 0.0000000000000000e+00  -4.3823822908183843e-06 -4.2520378649674638e-07 0.0000000000000000e+00  -9.7387524536176882e-07 1.5300373234551143e-09 0.0000000000000000e+00  -1.2233859243874974e-06 -1.1560247300906870e-09 0.0000000000000000e+00  6.5440462829887684e-07 6.0409237406936145e-07 0.0000000000000000e+00  5.0295724874125698e-07 1.8034332982190957e-06 0.0000000000000000e+00  -5.6606543802854212e-08 8.2649243434083835e-07 0.0000000000000000e+00  -2.6933987102518573e-06 -1.0504367182705639e-07 0.0000000000000000e+00  5.7182196146341587e-07 4.4244888729024630e-07 0.0000000000000000e+00  -5.2652388141305231e-07 -1.7335948950866803e-06 0.0000000000000000e+00  -9.9673478003698366e-07 -1.7209213923960778e-07 0.0000000000000000e+00  3.6824898306418397e-07 -3.8736001897180031e-08 0.0000000000000000e+00  1.8323653388373324e-06 -5.2210578574436765e-06 0.0000000000000000e+00  1.6786380858744651e-07 -5.3233473587334284e-06 0.0000000000000000e+00  -6.0035350481460122e-07 -2.4312410739980457e-06 0.0000000000000000e+00  -3.3012824085761437e-07 8.2513298879996763e-07 0.0000000000000000e+00  3.4029732252352528e-06 1.2405854156259768e-06 0.0000000000000000e+00  3.0904890376148686e-01 8.4525760016902263e-02 0.0000000000000000e+00  4.6564138270917111e-06 2.5404210975452707e-06 0.0000000000000000e+00  4.2583495861788947e-06 1.2922234165467046e-06 0.0000000000000000e+00  -1.8186234454998130e-06 -6.4354895688243366e-06 0.0000000000000000e+00  4.1058164678796241e-07 4.4154110774576252e-06 0.0000000000000000e+00  6.9118466991637473e-06 7.6766730345074464e-06 0.0000000000000000e+00  5.3999969968517565e-06 -5.1070439703741595e-06 0.0000000000000000e+00  -5.7801394211229668e-06 -7.0567113391036466e-06 0.0000000000000000e+00  -9.6253137125384467e-06 -4.4963736305355711e-07 0.0000000000000000e+00  -6.8714185670630134e-06 2.2309771485020589e-06 0.0000000000000000e+00  1.0418976734645834e-06 -1.6448804251224993e-06 0.0000000000000000e+00  -1.3557592788875208e-06 1.1317919433815771e-07 0.0000000000000000e+00  1.6583337409973203e-01 -3.1641954288201049e-07 0.0000000000000000e+00  -2.0584811565785215e-06 -4.7059652868717805e-08 0.0000000000000000e+00  6.1119399155229979e-06 1.9990046151842239e-06 0.0000000000000000e+00  -6.6604340755236879e-07 -3.0838607979226251e-07 0.0000000000000000e+00  1.4792242390182763e-07 1.0658582283398782e-07 0.0000000000000000e+00  -1.6496185141271655e-07 -3.6467333380671928e-08 0.0000000000000000e+00  -2.2679695157020109e-06 -4.6727817672930578e-07 0.0000000000000000e+00  2.5832726371260599e-07 4.3319303336540575e-07 0.0000000000000000e+00  -1.9005737883926242e-06 -3.7777996844241450e-07 0.0000000000000000e+00  -6.3244804399309316e-06 -5.4233451854182457e-07 0.0000000000000000e+00  -1.3618261759431642e-06 4.3774324497595956e-10 0.0000000000000000e+00  -1.7702081689293362e-06 -2.0149551814230297e-09 0.0000000000000000e+00  -1.0495594347631372e-06 -4.1135722108864518e-09 0.0000000000000000e+00  -6.2487254059249887e-07 -5.8219200194633175e-09 0.0000000000000000e+00  -8.2646601929245308e-07 3.7929420659733064e-10 0.0000000000000000e+00  -2.6946053793044750e-07 -9.0315791149490645e-10 0.0000000000000000e+00  2.0167992215397243e-01 1.6246699083844132e-06 0.0000000000000000e+00  2.0167449230445730e-01 2.0621325445718607e-05 0.0000000000000000e+00  2.1591134637309911e-01 -8.2424592446856543e-02 0.0000000000000000e+00  2.0207473995506395e-01 -2.9019533360140309e-03 0.0000000000000000e+00  2.0168946470841945e-01 -1.2448715439198219e-05 0.0000000000000000e+00  2.0167346449506887e-01 3.5164210568118379e-06 0.0000000000000000e+00  -8.3456862058381281e-07 3.9139022108432848e-08 0.0000000000000000e+00  -1.0077850242584339e-07 1.3267973432334233e-09 0.0000000000000000e+00  -8.9200221229315754e-07 2.4345553771154425e-09 0.0000000000000000e+00  1.9339364569911016e-01 -1.8219559576313969e-07 0.0000000000000000e+00  -1.2169824121452051e-06 -8.7153952589067668e-10 0.0000000000000000e+00  2.0071213804289273e-01 -2.9703782728229578e-04 0.0000000000000000e+00  -1.7242545634960362e-06 -1.6125523501816804e-09 0.0000000000000000e+00  -1.4524466663914427e-06 -7.2184589440102989e-10 0.0000000000000000e+00  -9.8988216525568202e-07 -2.8789385774374911e-09 0.0000000000000000e+00  -9.2753826171719021e-07 -1.3376663984151283e-07 0.0000000000000000e+00  3.0555725672249151e-07 -4.2554311775073702e-07 0.0000000000000000e+00  -8.5240997629331392e-07 3.3683958186659200e-08 0.0000000000000000e+00  1.0954381298031944e-06 7.3987913784516029e-07 0.0000000000000000e+00  -1.1320803404947100e-06 -1.1104515390003988e-07 0.0000000000000000e+00  -3.2085729260169084e-06 2.9861200308589879e-07 0.0000000000000000e+00  6.0984963378484741e-07 2.1329313752431638e-09 0.0000000000000000e+00  1.9379392465280457e-01 -1.5380912474522328e-02 0.0000000000000000e+00  -5.6769383322892702e-07 -8.3896724332842200e-09 0.0000000000000000e+00  2.0103412528357448e-01 2.8143295175107374e-05 0.0000000000000000e+00  3.4133285519947448e-01 -1.1639803918863444e-01 0.0000000000000000e+00  1.0359960196902657e-01 2.1974473938478706e-02 0.0000000000000000e+00  3.0160612042346663e-01 1.2819850300048211e-01 0.0000000000000000e+00  1.9973278213907178e-01 2.7831171645501006e-05 0.0000000000000000e+00  2.0866796960751011e-01 -5.1682547746898719e-03 0.0000000000000000e+00  2.0026425030705305e-01 -2.6051819660348469e-04 0.0000000000000000e+00  3.8687794985353338e-02 -4.5399239976987732e-04 0.0000000000000000e+00  1.9946137311861148e-01 2.1529894200812496e-05 0.0000000000000000e+00  1.9941889870519053e-01 -5.6717252303606504e-08 0.0000000000000000e+00  1.9340040845298556e-01 7.3582794542648686e-06 0.0000000000000000e+00  7.5234785348698277e-02 2.2122931759699492e-07 0.0000000000000000e+00  2.7319262441898567e-01 -4.1124328784012515e-08 0.0000000000000000e+00  2.0121500405679507e-01 -3.2473089371396520e-06 0.0000000000000000e+00  2.7394927615751480e-01 8.6412045383709238e-02 0.0000000000000000e+00  1.8310032070795226e-01 -4.0684966682561871e-06 0.0000000000000000e+00  1.9342674400444865e-01 6.3109444803484378e-05 0.0000000000000000e+00  1.9623369099647353e-01 5.7238198917453049e-05 0.0000000000000000e+00  1.9740317537522903e-01 -1.3598552062109302e-03 0.0000000000000000e+00  1.9122977381786188e-01 -2.3259599058843485e-06 0.0000000000000000e+00  1.9343681621744288e-01 9.2240794714908455e-07 0.0000000000000000e+00  1.9214662821829726e-01 -7.5525373321220742e-04 0.0000000000000000e+00  2.8390377702942238e-01 -4.7645653521629458e-02 0.0000000000000000e+00  1.5690005546312805e-01 -2.9053742450977041e-02 0.0000000000000000e+00  1.9341263896772867e-01 -7.7934957249694624e-06 0.0000000000000000e+00  1.9559290981461427e-01 -7.1770353863598237e-04 0.0000000000000000e+00  1.9334946173095485e-01 4.7788846161349793e-05 0.0000000000000000e+00  1.7460784051490738e-01 7.6603495754148709e-05 0.0000000000000000e+00  1.7056363024007903e-01 -2.2515280948958182e-03 0.0000000000000000e+00  4.0715706337894786e-01 -6.6441064199749267e-02 0.0000000000000000e+00  -2.3748917049003819e-06 2.3907214240064994e-07 0.0000000000000000e+00  2.0166119676162694e-01 8.1807559175527870e-06 0.0000000000000000e+00  2.4527857376605093e-07 -1.6943188602916542e-07 0.0000000000000000e+00  1.9745019848022613e-01 4.0796305153488978e-05 0.0000000000000000e+00  2.2117329009880185e-01 -2.5777057945887531e-02 0.0000000000000000e+00  2.0172188123095167e-01 -1.4956644683913168e-04 0.0000000000000000e+00  1.2684356702886770e-01 6.8778278618407809e-02 0.0000000000000000e+00  2.3203814022449321e-01 2.2910716565257075e-02 0.0000000000000000e+00  2.0925437115206902e-01 2.3764837391395271e-02 0.0000000000000000e+00  1.4879544572930212e-01 7.6141987736348934e-02 0.0000000000000000e+00  4.6467528293258387e-01 -3.5742044216015359e-02 0.0000000000000000e+00  1.1589759553078068e-01 -5.8200776558827487e-02 0.0000000000000000e+00  3.7132102648650262e-07 -1.8142688696558377e-07 0.0000000000000000e+00  1.6721206054588739e-01 9.1208274134351193e-06 0.0000000000000000e+00  -2.1426457040856302e-06 -5.4418002673101366e-09 0.0000000000000000e+00  -1.1876010781999446e-06 1.2343872265910691e-08 0.0000000000000000e+00  -4.1859952092319678e-07 -1.9037901328144250e-09 0.0000000000000000e+00  2.0165876041523598e-01 3.9187639166039943e-05 0.0000000000000000e+00  -2.2246294204963751e-06 -9.5744350158253865e-08 0.0000000000000000e+00  4.0172016173563468e-01 5.1398364539851867e-02 0.0000000000000000e+00  4.0388387739482939e-01 6.9983527349964117e-02 0.0000000000000000e+00  1.7429882673166308e-01 -4.8695145225619349e-06 0.0000000000000000e+00  3.4457746232747588e-01 1.4399157097583073e-02 0.0000000000000000e+00  -1.4332404107265939e-06 -3.3585672090772876e-10 0.0000000000000000e+00  6.8497092714024092e-07 1.4693045432617472e-07 0.0000000000000000e+00  -1.2407891070201518e-06 -9.2545890317946461e-09 0.0000000000000000e+00  1.7774523285686189e-01 -3.0450474808291304e-06 0.0000000000000000e+00  1.9158937758005573e-01 -1.1507130362647047e-01 0.0000000000000000e+00  -1.1380643300144398e-07 -3.9784674399825376e-07 0.0000000000000000e+00  2.1245953706630685e-01 -4.8772241220396646e-02 0.0000000000000000e+00  1.6961399052556861e-01 1.7584475773601707e-01 0.0000000000000000e+00  3.2609820653541527e-01 -6.2809777571382383e-02 0.0000000000000000e+00  3.1697149736946059e-06 2.4820901907237532e-07 0.0000000000000000e+00  9.8650753754157883e-02 3.6373271750126078e-02 0.0000000000000000e+00  2.0116196564332983e-01 -3.5268152011580984e-05 0.0000000000000000e+00  1.7452811887054684e-01 2.6173584429562828e-05 0.0000000000000000e+00  -5.8596923339671770e-08 -2.2456504113954479e-09 0.0000000000000000e+00  1.6010832671641217e-01 -8.5563455801956987e-03 0.0000000000000000e+00  2.0153648558682050e-01 1.8715745256017122e-05 0.0000000000000000e+00  2.0321520042192062e-01 -8.0104651142817729e-03 0.0000000000000000e+00  2.0111644972082965e-01 -1.1436061628181963e-03 0.0000000000000000e+00  1.7455437180123123e-01 2.0688033780014663e-05 0.0000000000000000e+00  1.9759065117864796e-01 -3.4137386390041815e-03 0.0000000000000000e+00  2.0326684676222326e-01 1.4361187461442663e-02 0.0000000000000000e+00  8.4827649043737297e-02 -7.7274473269372387e-03 0.0000000000000000e+00  1.9317293930801946e-01 -4.0264395863807256e-02 0.0000000000000000e+00  7.5046491164397613e-02 -2.1104471565337291e-02 0.0000000000000000e+00  2.2319525462569545e-01 7.9363858493843014e-03 0.0000000000000000e+00  5.3015358845133052e-02 3.6961554110475407e-02 0.0000000000000000e+00  8.3037538461113697e-02 -2.1095328858266676e-02 0.0000000000000000e+00  -1.5875494861112256e-06 1.5910783026608467e-07 0.0000000000000000e+00  -8.3848526816710502e-07 -2.6647635482357496e-09 0.0000000000000000e+00  -6.8056471043061724e-07 6.7097898494164993e-07 0.0000000000000000e+00  2.5547089282192559e-01 -3.7920146418787846e-02 0.0000000000000000e+00  7.8377784156832303e-02 2.6575542148589489e-02 0.0000000000000000e+00  -2.3289086398982551e-06 -2.5459333531178343e-09 0.0000000000000000e+00  -1.0394245200550745e-06 -4.5800849665222179e-10 0.0000000000000000e+00  1.7187361988256344e-01 3.2032112298190686e-05 0.0000000000000000e+00  2.0080872216989895e-01 1.3516594606673876e-05 0.0000000000000000e+00  -1.0709986498776893e-06 4.1989502595360135e-10 0.0000000000000000e+00  -1.3197890738061267e-06 -2.0969556751795917e-09 0.0000000000000000e+00  -1.2124496274108122e-06 -3.2938829459341082e-09 0.0000000000000000e+00  -3.7468896189183968e-07 2.6486174348627915e-10 0.0000000000000000e+00  -3.5192004931368024e-07 -7.1212623691624979e-10 0.0000000000000000e+00  1.4303893243411808e-06 -1.3311013563250480e-07 0.0000000000000000e+00  -3.8516176385684721e-06 -3.2470336949132007e-07 0.0000000000000000e+00  -7.6998934867991011e-07 4.9349844531477081e-08 0.0000000000000000e+00  -2.0441327591719892e-06 -1.3932710217662920e-07 0.0000000000000000e+00  -1.2379137319587606e-06 1.8831567158771357e-07 0.0000000000000000e+00  -5.9967898976780857e-08 -1.3679753267898861e-09 0.0000000000000000e+00  -1.3660733239251269e-06 1.9260315094950585e-09 0.0000000000000000e+00  -5.8344417965700995e-07 -8.7486398073388112e-10 0.0000000000000000e+00  1.0731906535795439e-01 -1.9094086527932600e-02 0.0000000000000000e+00  1.5801273848722996e-01 1.1002269856645994e-04 0.0000000000000000e+00  1.5995651607695102e-01 2.4810845417243428e-04 0.0000000000000000e+00  1.6511378281399192e-01 1.6066970469982311e-05 0.0000000000000000e+00  3.0611998270524327e-01 9.4311499981216337e-02 0.0000000000000000e+00  3.1709263967577522e-01 5.9964686214194325e-02 0.0000000000000000e+00  3.1566774698732147e-01 2.6224730570006786e-02 0.0000000000000000e+00  1.7132002584935793e-01 4.2591469446954374e-06 0.0000000000000000e+00  2.0166944943882462e-01 3.3152799855385305e-05 0.0000000000000000e+00  2.0224893836490962e-01 -1.1238323319511486e-03 0.0000000000000000e+00  1.5328264721308199e-01 7.9208860322557597e-05 0.0000000000000000e+00  2.0167683089386812e-01 -7.8715016767452015e-06 0.0000000000000000e+00  2.0168031159381894e-01 -5.5009896960152697e-06 0.0000000000000000e+00  2.0103579412084036e-01 2.3978931443037813e-07 0.0000000000000000e+00  2.0156614603322043e-01 5.1875439812405278e-06 0.0000000000000000e+00  1.5778662073041558e-01 -1.4834416226059626e-06 0.0000000000000000e+00  1.6501428672316931e-01 1.3138533396476277e-06 0.0000000000000000e+00  2.1062564754771168e-01 1.9862061190854544e-01 0.0000000000000000e+00  1.0837117109133964e-02 5.4401495637882401e-02 0.0000000000000000e+00  1.5340278060823981e-01 1.2518223151911740e-04 0.0000000000000000e+00  2.2596340313736984e-01 -9.4647043163332261e-03 0.0000000000000000e+00  1.8998148963316439e-01 3.9176722256562682e-05 0.0000000000000000e+00  2.0155138829284827e-01 2.3556550647786987e-05 0.0000000000000000e+00  2.0178265111239430e-01 -5.2653752279071663e-04 0.0000000000000000e+00  2.0078065249170146e-01 3.8718523836521695e-06 0.0000000000000000e+00  1.6656010886175357e-01 7.5381944896977219e-05 0.0000000000000000e+00  2.0146088402493051e-01 3.2527927059750671e-05 0.0000000000000000e+00  2.0449159512063395e-01 -3.4977778091264573e-03 0.0000000000000000e+00  1.6117215385029793e-01 4.1169131116137662e-06 0.0000000000000000e+00  2.0111066824066842e-01 1.8249317950684906e-05 0.0000000000000000e+00  1.5882056921243601e-01 -1.7422869680425716e-06 0.0000000000000000e+00  1.4109337876929190e-01 7.0884370143192710e-02 0.0000000000000000e+00  2.2403709947757811e-01 1.2639562609315561e-01 0.0000000000000000e+00  1.9141853692516089e-01 2.8603748369045813e-02 0.0000000000000000e+00  1.4673955025600102e-01 2.0011092525086028e-04 0.0000000000000000e+00  2.0895247684841431e-01 -1.4028050227896693e-02 0.0000000000000000e+00  1.9846593894508588e-01 -5.0645428162925576e-04 0.0000000000000000e+00  3.9126129452419312e-01 2.1551415295710492e-02 0.0000000000000000e+00  2.0141582891764603e-01 -3.2789375773202343e-06 0.0000000000000000e+00  1.9948563917183210e-01 -4.5054667879481191e-05 0.0000000000000000e+00  3.4608205023118854e-01 1.7005510012573960e-01 0.0000000000000000e+00  3.0511282320024907e-01 3.8363438893271762e-02 0.0000000000000000e+00  2.3300428110568350e-01 8.5169239794508314e-02 0.0000000000000000e+00  2.0167091508658289e-01 1.9108638279885482e-05 0.0000000000000000e+00  1.9804071353166727e-01 -1.4774399172812003e-05 0.0000000000000000e+00  2.0122887886646029e-01 -6.2428859746528813e-06 0.0000000000000000e+00  3.2833737475866409e-01 -1.1471329848823539e-01 0.0000000000000000e+00  1.2292851773856182e-01 3.1398411686844929e-02 0.0000000000000000e+00  1.5017958757602956e-01 4.0317648330720802e-05 0.0000000000000000e+00  2.2761534872595932e-01 2.5745857710958293e-02 0.0000000000000000e+00  1.7917322958079862e-01 7.4675761652123529e-02 0.0000000000000000e+00  2.0065605854783555e-01 3.3752222872779732e-05 0.0000000000000000e+00  1.5885839907932359e-01 4.8260427814782314e-05 0.0000000000000000e+00  1.7980513756962507e-01 -1.1183981079113249e-03 0.0000000000000000e+00  4.6778449894517155e-01 2.4497068146727061e-02 0.0000000000000000e+00  1.9402848308717352e-01 -6.8683764486580376e-03 0.0000000000000000e+00  2.1382140369546818e-01 -8.3806558322663607e-03 0.0000000000000000e+00  1.9914137581828811e-01 3.6568918042881094e-06 0.0000000000000000e+00  1.4058421956324338e-01 -5.6056383629952810e-03 0.0000000000000000e+00  1.9907986759053459e-01 3.2240534932501848e-05 0.0000000000000000e+00  2.0144487684384507e-01 3.5334837015839869e-05 0.0000000000000000e+00  1.9778683859447685e-01 -4.6594071291949549e-04 0.0000000000000000e+00  1.0521252740440253e-01 -9.2927761070086528e-03 0.0000000000000000e+00  1.3105468395479666e-01 -2.8375857946306784e-06 0.0000000000000000e+00  1.3116304664402892e-01 -4.7274167574279372e-05 0.0000000000000000e+00  1.6686533721180025e-01 -6.0041095330802860e-02 0.0000000000000000e+00  5.7139735456072642e-02 1.5634541536060878e-02 0.0000000000000000e+00  1.9774373951872845e-01 3.5220440645932569e-06 0.0000000000000000e+00  1.3915292301488180e-01 6.0284321401572837e-06 0.0000000000000000e+00  4.2668160634630775e-01 -7.0822040872505154e-02 0.0000000000000000e+00  2.0116818415588739e-01 1.3561352134079768e-05 0.0000000000000000e+00  1.9948150459156450e-01 -6.5135142718869470e-06 0.0000000000000000e+00  3.5785279728458498e-02 1.7606249908866271e-07 0.0000000000000000e+00  1.7990053616273499e-01 -2.2651935725481926e-02 0.0000000000000000e+00  1.5931628836001163e-01 4.0859770085324189e-02 0.0000000000000000e+00  2.0148111586280990e-01 8.8605269733221415e-06 0.0000000000000000e+00  1.9879373715822030e-01 2.1079836833484563e-05 0.0000000000000000e+00  1.2016484646314962e-01 1.1826489514236574e-03 0.0000000000000000e+00  1.9958225348978392e-01 -1.9492626395541186e-03 0.0000000000000000e+00  3.8087575493136089e-01 3.6101549635507463e-02 0.0000000000000000e+00  1.4816531647921727e-01 4.4466006998944810e-05 0.0000000000000000e+00  1.2959141592065665e-01 1.5011389840525135e-05 0.0000000000000000e+00  1.4199486756624988e-01 1.0580323516305332e-07 0.0000000000000000e+00  -2.8383678023503013e-03 4.7185450332555244e-02 0.0000000000000000e+00  3.3356386623401763e-01 -8.6787730255289731e-08 0.0000000000000000e+00  1.3739316366582277e-01 7.2483743340955945e-05 0.0000000000000000e+00  4.0988144095753565e-01 -7.3944079303013737e-03 0.0000000000000000e+00  1.4613353065179263e-01 8.3329735727920333e-06 0.0000000000000000e+00  2.0072372202975355e-01 -1.8036138965752712e-03 0.0000000000000000e+00  1.1852648607866949e-01 1.7189150136959560e-07 0.0000000000000000e+00  2.0121577225898676e-01 -2.1649954924798863e-06 0.0000000000000000e+00  1.4203862368858561e-01 8.3346140583759248e-06 0.0000000000000000e+00  2.1733315576352011e-01 -1.4909314863518252e-08 0.0000000000000000e+00  1.4205131713580912e-01 -5.9265665747167646e-06 0.0000000000000000e+00  1.9850868806806168e-01 6.6618520167395639e-05 0.0000000000000000e+00  2.0154817744416892e-01 -3.0428234127945780e-06 0.0000000000000000e+00  1.3804282252982078e-01 3.8595217643690287e-05 0.0000000000000000e+00  1.1263890851787575e-01 6.1357427182528299e-05 0.0000000000000000e+00  1.9537414196940767e-01 -3.4484120424760845e-05 0.0000000000000000e+00  1.0983439763518815e-01 -1.0396145071404192e-03 0.0000000000000000e+00  2.9044265048990336e-01 -2.6160503130254056e-02 0.0000000000000000e+00  2.2651170198557180e-01 -2.6998754696390698e-02 0.0000000000000000e+00  4.1393674128428509e-01 -9.7936702503645293e-02 0.0000000000000000e+00  1.3100308359139551e-01 1.4649361573978542e-05 0.0000000000000000e+00  2.8099777170158308e-01 -8.8381048917629462e-02 0.0000000000000000e+00  1.8095868103180590e-01 -1.9861867533510255e-02 0.0000000000000000e+00  1.9604033010198349e-01 4.3080984624666508e-06 0.0000000000000000e+00  2.0020718587030351e-01 -2.1228444435360508e-03 0.0000000000000000e+00  1.1218813684148217e-01 9.3136216028077233e-06 0.0000000000000000e+00  1.1913137211202289e-01 1.5690019256645435e-03 0.0000000000000000e+00  2.029076491826530