<?xml version="1.0"?>
<VTKFile type="UnstructuredGrid"  version="0.1"  >
<UnstructuredGrid>
<Piece  NumberOfPoints="1404" NumberOfCells="2604">
<Points>
<DataArray  type="Float64"  NumberOfComponents="3"  format="ascii">0 0.41 0  0 0 0  2.2 0 0  2.2 0.41 0  0.2353553390593274 0.2353553390593274 0  0.25 0.2 0  0.2353553390593274 0.1646446609406726 0  0.2 0.15 0  0.1646446609406726 0.1646446609406726 0  0.15 0.2 0  0.1646446609406726 0.2353553390593274 0  0.2 0.25 0  0.6923879532511287 0.188268343236509 0  0.7 0.15 0  0.6923879532511287 0.1117316567634909 0  0.6707106781186547 0.07928932188134523 0  0.6382683432365089 0.05761204674887133 0  0.6 0.04999999999999999 0  0.5617316567634909 0.05761204674887134 0  0.5292893218813453 0.07928932188134524 0  0.5076120467488713 0.111731656763491 0  0.5 0.15 0  0.5076120467488713 0.188268343236509 0  0.5292893218813453 0.2207106781186547 0  0.561731656763491 0.2423879532511287 0  0.6 0.25 0  0.6382683432365089 0.2423879532511287 0  0.6707106781186547 0.2207106781186547 0  1.1 0 0  0 0.205 0  1.1 0.41 0  0.55 0 0  0.55 0.41 0  0.275 0 0  0.8250000000000001 0 0  0.275 0.41 0  0.8250000000000001 0.41 0  0.6875 0 0  0.61875 0 0  1.65 0.41 0  1.65 0 0  1.375 0 0  1.375 0.41 0  1.925 0 0  1.925 0.41 0  1.5125 0.205 0  1.7875 0.205 0  0.9625000000000001 0.205 0  1.2375 0.205 0  2.2 0.205 0  1.99375 0.2152743902439024 0  0.4125 0.41 0  2.0625 0 0  2.0625 0.41 0  2.2 0.3075 0  1.7875 0.41 0  1.375 0.1486128048780488 0  1.5125 0 0  1.7875 0 0  1.5125 0.41 0  0.9625000000000001 0.41 0  0.4125 0 0  0.1375 0 0  0.1375 0.41 0  0.6875 0.41 0  0.9625000000000001 0 0  1.2375 0 0  1.1 0.1486128048780488 0  1.2375 0.41 0  1.65 0.1486128048780487 0  0.823495464168302 0.2603780552348366 0  0.3738707794507017 0.2720196349488618 0  0.3662291281331582 0.1311456406657909 0  1.676715909090909 0.2793064024390244 0  1.126715909090909 0.2793064024390244 0  1.348284090909091 0.2793064024390244 0  0.8287581077665108 0.1302150898054257 0  1.894702181800738 0.1282910975492754 0  2.092797818199262 0.1282910975492754 0  1.85625 0.3075 0  0 0.3075 0  0 0.1025 0  2.099172119769978 0.25625 0  0.4752414543992246 0.3180372603390748 0  1.99375 0.08395950269330846 0  1.459960956013612 0.3075 0  1.569025960719943 0.2986889805672169 0  1.03125 0.3278689922742084 0  1.959375 0.3126371951219512 0  1.749222215368287 0.1025 0  1.275777784631713 0.1025 0  0.9228016959331474 0.3075 0  1.000777784631713 0.1025 0  2.2 0.1025 0  1.225938124459196 0.3075 0  1.550777784631713 0.1025 0  1.44375 0.07430640243902442 0  1.16875 0.07430640243902439 0  0.7562500000000001 0.3358727844323386 0  0.89375 0 0  1.899250267340833 0.2229966846119207 0  0.61875 0.41 0  1.766482954545455 0.2934032012195123 0  1.046078563095834 0.2389031808701145 0  1.421109702350723 0.2261157654379721 0  0.07567171807980319 0.25625 0  0.2511897295290552 0.3235829392832554 0  0.07655002503762308 0.1488653460959645 0  0.1377245246847496 0.3206030474919778 0  0.6694099692696568 0.3242771941727899 0  0.9168971191497528 0.1295727156104653 0  0.7562500000000001 0 0  2.118919042110979 0.3422084711244843 0  2.13125 0 0  0.06875000000000001 0 0  1.30625 0.41 0  1.597888256393107 0.2173787389261347 0  0.34375 0.41 0  0.2493272016354703 0.08091360081773515 0  0.5588896233436766 0.3264056208677571 0  1.829299675393195 0.07400700849299596 0  0.1334079128307869 0.08523463035786674 0  1.71875 0.41 0  0.06875000000000001 0.41 0  1.16875 0.41 0  2.038220665644273 0.332420740103091 0  0.8810647413215221 0.2027360103977071 0  0.34375 0 0  0.7453891198966415 0.2471459041008237 0  0.42112093004955 0.1988123139090554 0  0.8314023090855964 0.3351170841770613 0  0.89375 0.41 0  0.7906250000000001 0.06615386481594063 0  1.452769549894695 0.1548122580621249 0  1.369219062229598 0.07430640243902442 0  1.30625 0 0  1.07420695807087 0.07430640243902439 0  1.720943423819132 0.1714577452753128 0  1.157188124459196 0.205 0  1.304056576180868 0.1714577452753128 0  1.67579304192913 0.07430640243902437 0  1.209670467133757 0.136210026696477 0  0.4312800784902823 0.08036147352247747 0  0.8723959680194693 0.07066860609690805 0  1.025335513626278 0.1700681449722324 0  0.7945632284247136 0.1940204203251442 0  0.378125 0.3452261501101892 0  0.3307109909790086 0.2037165635083759 0  0.3009701032039409 0.2702970083403109 0  0.20625 0.41 0  1.58125 0 0  0.4812500000000001 0 0  0.9838963872396855 0.2722244191167347 0  0.06772484939107212 0.3260067317374387 0  0.20625 0 0  1.58125 0.41 0  1.631724228912893 0.3381867502687533 0  1.825608881788174 0.14499488549201 0  1.85625 0 0  1.44375 0 0  1.44375 0.41 0  1.85625 0.41 0  2.13125 0.41 0  0.7562500000000001 0.41 0  0.4812500000000001 0.41 0  1.16875 0 0  1.03125 0.41 0  1.03125 0 0  1.71875 0 0  1.99375 0 0  1.99375 0.41 0  0.9408708167433545 0.0651989315768642 0  1.340625 0.3489494290853124 0  1.134375 0.3489494290853123 0  1.700180620188976 0.3438659752031281 0  0.29668452290037 0.1318471691375986 0  0.3175441051360096 0.06496934809856265 0  0.06509151636162461 0.08140814015999148 0  2.135782184673599 0.07126652247502523 0  1.668441847249787 0.2129203728327609 0  1.295782514339747 0.2378437748815763 0  1.409375 0.3520314716057996 0  2.129248544730567 0.1906135162504124 0  2.060771381434487 0.1989445750470348 0  2.013252586573865 0.1496169464686054 0  1.942766402200229 0.1734448904596831 0  1.895522487186454 0.06076163953489683 0  2.069553871656643 0.06605731020975725 0  0.4670911801404742 0.2498408582391372 0  0.7622743084658112 0.1264100838268133 0  1.274680914880868 0.3520219391081363 0  0.3148669572599245 0.3331753056385887 0  1.614713220494657 0.09473434380863296 0  1.72990325744076 0.2380068107952482 0  1.356580098625191 0.2120393231351682 0  2.034370752044885 0.2668681600792073 0  1.51768709249349 0.3426260931494756 0  1.561883724969884 0.1650446847858835 0  1.197344062229598 0.2523725417393646 0  1.804085235518364 0.3468178408964637 0  1.817887819205233 0.2589243285818559 0  1.905897727272727 0.3485060975609756 0  0.7296439733931823 0.06337466644369745 0  0.4250935971865949 0.1394919578475796 0  0.3773030136511669 0.05130372097998036 0  1.192836486056382 0.3562350748565544 0  1.1029124365364 0.226143510831178 0  1.28257088594801 0.2944411014911587 0  0.1905185804731426 0.06029880676029167 0  1.474860187679412 0.2504218616229368 0  1.406767003493824 0.2829282258560709 0  0.5209826960981064 0.2830664557824064 0  0.5131119502780163 0.3617405848213254 0  0.1948220106098172 0.3081993407644811 0  1.845656689180403 0.1998310418452388 0  2.144958525570388 0.2909790873294231 0  2.2 0.15375 0  0.8833025251326762 0.2625402923007629 0  0.171875 0.3653875762360952 0  1.57794966442982 0.3540357145964566 0  0.446875 0.366068291212731 0  0.4272051715206439 0.2891929346190664 0  1.508991196088596 0.1421783375065625 0  1.50436820029908 0.06143401634903343 0  1.223857000523521 0.08235548624535324 0  0.6137904613287555 0.3066826366281556 0  1.153316824384777 0.1289850171317838 0  0.9751573703656133 0.327632618473408 0  2.148922302309752 0.1258841779285271 0  0.9281250000000001 0.3643758685795699 0  1.621993280276081 0.2841214267927899 0  1.550118654119087 0.2461998729100966 0  1.327182649291491 0.1216967252533594 0  0.9939955742738924 0.04663549843168518 0  1.753125 0.04556020050186112 0  1.271875 0.04556020050186116 0  0.9734326767716519 0.1506854560854393 0  0.103125 0.3675775577080512 0  1.94956388244759 0.1180512551534177 0  1.949997712993411 0.04965831614304109 0  0.717433898748555 0.295596016333797 0  1.771961817615021 0.1530278789497521 0  1.909246823951428 0.2812757146784527 0  0 0.35875 0  1.050632804931928 0.1226269704412814 0  0.05695108326502596 0.2024009637347154 0  1.948575539857022 0.2445328248721197 0  1.697271520964565 0.1233917627620729 0  1.065625 0.3689344961371042 0  1.085849084308977 0.3170853572226867 0  0.1015495998772944 0.04226029099983852 0  1.577403511714593 0.05463601888079143 0  1.751571320346033 0.3651102912045228 0  2.2 0.35875 0  0.7441773632462837 0.1786786606458751 0  0 0.05125 0  1.466879772203159 0.3611261772912453 0  0.6282230348858767 0.3577675483994025 0  1.990280163552011 0.3564754268533217 0  1.17471064520912 0.2990917256188288 0  0 0.25625 0  2.2 0.25625 0  2.2 0.05125 0  0 0.15375 0  1.853978576207987 0.35875 0  1.515638456102889 0.2882700110184686 0  2.150453692751374 0.2387066338105111 0  1.323782677156475 0.04897634338873398 0  1.409375 0.03715320121951221 0  1.406484531114799 0.1087852750766809 0  1.134375 0.03715320121951219 0  0.721875 0.3729363922161693 0  0.7941695928236929 0.3696489254637395 0  0.7934827162619036 0.3013409431456604 0  1.627401732573545 0.04552157221025036 0  0.9352049974617431 0.2507047965699472 0  0.8763260682738339 0.3611103317460093 0  2.045405893604797 0.1105340662939892 0  1.255408269734577 0.1577307500159216 0  2.028125 0.03707597992059326 0  1.003030137506755 0.3689344961371042 0  1.248258025468107 0.2565907092181813 0  1.203125 0.03661323374043041 0  0.4800125512335631 0.0549472816999725 0  2.072662025974815 0.2975086504196739 0  0.240625 0.3729825336867542 0  1.113252391110535 0.10238286244357 0  1.071052763974265 0.1885202618768825 0  0.8738809401657862 0.3106483608284829 0  0.6786819423003397 0.2677558482644021 0  1.887722846421017 0.1760882698830035 0  1.472640588990488 0.1118278026240017 0  0.5843750000000001 0.41 0  1.865937103925594 0.2604137786483804 0  1.463913572748262 0.2030442564990043 0  1.376426316059077 0.3186741374914345 0  0.1038643885363755 0.2162701735320032 0  0.1769473813227781 0.1070849728467114 0  0.458787839809176 0.171541653775316 0  0.240625 0 0  0.04179569703428024 0.2877217852556549 0  0.1258346557601885 0.2699740073054968 0  1.722140693354707 0.282908100935778 0  0.41206179117512 0.2448172567039922 0  0.3702471778075604 0.2265217604228704 0  0.3714881805374215 0.1786967818665642 0  1.77397096061971 0.2481483237422926 0  2.105123889160691 0.03743885948498647 0  1.001138337938679 0.229719337663998 0  1.051242910646791 0.2854826559431138 0  1.395420985247586 0.18
[...]
<PointData  Vectors="f_37"> 
<DataArray  type="Float64"  Name="f_37"  NumberOfComponents="3" format="ascii">2.5368506961052922e-07 5.0604122848457472e-08 0.0000000000000000e+00  -4.4423286638463199e-06 -3.6515524336364323e-07 0.0000000000000000e+00  -6.5949020370170182e-07 3.9550202943842406e-10 0.0000000000000000e+00  -8.7349156131743001e-07 6.6661630990918614e-11 0.0000000000000000e+00  2.6160924940929432e-08 1.7868604978788753e-07 0.0000000000000000e+00  2.3037877769888589e-07 -2.7204069875683065e-07 0.0000000000000000e+00  1.7599155232178977e-07 9.6049078073870571e-08 0.0000000000000000e+00  -8.9321434123064412e-07 -1.1775757137093737e-07 0.0000000000000000e+00  -7.5540214596692151e-07 -1.9201315648553654e-07 0.0000000000000000e+00  1.0561506255935939e-07 -5.8885257384209760e-07 0.0000000000000000e+00  -1.0241691094631252e-06 -5.5019397128459893e-07 0.0000000000000000e+00  -1.1178438898380726e-06 -2.2084708346014147e-07 0.0000000000000000e+00  3.3895481563340885e-07 5.6848479940774838e-07 0.0000000000000000e+00  -4.0857625439123709e-07 -3.0075929827380011e-07 0.0000000000000000e+00  -3.7556946630158438e-07 -8.1515749173706621e-08 0.0000000000000000e+00  -1.5923251671097442e-06 -5.1655854274192550e-07 0.0000000000000000e+00  1.6908977174637855e-06 4.7396166415978603e-07 0.0000000000000000e+00  3.4612215991403700e-01 9.6397959489983906e-02 0.0000000000000000e+00  2.2472105484175792e-06 7.3474280552750023e-07 0.0000000000000000e+00  1.0211350916325431e-07 2.5861455569141597e-07 0.0000000000000000e+00  -1.4472698009046365e-06 1.3275874155578341e-07 0.0000000000000000e+00  -2.1609054416008111e-07 -5.2462523805421995e-07 0.0000000000000000e+00  -2.9785470023746514e-07 -6.3420329482744434e-07 0.0000000000000000e+00  -1.3909452785307083e-06 -1.7095072364476360e-06 0.0000000000000000e+00  -3.2458809495973920e-06 -8.4211055970388632e-07 0.0000000000000000e+00  -4.0081799782341377e-06 -2.9899263501907576e-08 0.0000000000000000e+00  -4.1385047119644089e-06 -1.7212632226003209e-07 0.0000000000000000e+00  -4.1711640293272668e-07 2.6963136836436520e-07 0.0000000000000000e+00  6.8588455055625600e-07 -2.1952117004377504e-07 0.0000000000000000e+00  1.6583343586335578e-01 -4.7221363856740385e-07 0.0000000000000000e+00  1.8134049337919261e-07 3.2216748401322310e-07 0.0000000000000000e+00  3.1319486954813118e-06 8.4980421803006782e-07 0.0000000000000000e+00  -4.4054279434413114e-07 -8.2601631287867018e-08 0.0000000000000000e+00  4.6905503978757795e-07 5.6610541039621176e-08 0.0000000000000000e+00  -2.5130657224961822e-07 -1.8195096006451694e-08 0.0000000000000000e+00  -9.7955660896815045e-07 -1.2596419364764576e-08 0.0000000000000000e+00  -1.5877819312487927e-06 -6.4983555553805555e-08 0.0000000000000000e+00  -2.6693185746014055e-06 -5.2097229641969885e-07 0.0000000000000000e+00  -9.4192650086039462e-06 -9.6566753414686100e-07 0.0000000000000000e+00  -9.9833331831863599e-07 -1.0007240866895673e-08 0.0000000000000000e+00  -1.2051355059329329e-06 -1.4004044517287233e-08 0.0000000000000000e+00  -7.0902202772603384e-07 6.6906117580496366e-08 0.0000000000000000e+00  -1.3434081286511449e-06 -1.5698673916951068e-07 0.0000000000000000e+00  -4.9629142845613936e-07 -4.9428843246466342e-10 0.0000000000000000e+00  -6.6325508594115391e-08 -1.2495556876850784e-10 0.0000000000000000e+00  2.2038982308329078e-01 5.4152137255536019e-03 0.0000000000000000e+00  2.2031970582553834e-01 3.9095868246003158e-04 0.0000000000000000e+00  2.0183728717648020e-01 -1.8759509369069022e-02 0.0000000000000000e+00  2.7254906463647355e-01 -4.9321072628205495e-02 0.0000000000000000e+00  2.2034278153480438e-01 -4.3309797689721956e-06 0.0000000000000000e+00  2.2013357044222379e-01 1.7638017972510808e-05 0.0000000000000000e+00  3.6041432421072755e-07 2.3947424042414912e-08 0.0000000000000000e+00  1.7507569949077567e-07 3.6652620879867556e-10 0.0000000000000000e+00  -5.6356482235038235e-07 6.2466290506273845e-10 0.0000000000000000e+00  1.8847039436323765e-01 -1.0156594750463536e-05 0.0000000000000000e+00  -8.2045484353989553e-07 -2.6425148049205154e-09 0.0000000000000000e+00  2.2056004902840806e-01 7.6549202420049534e-04 0.0000000000000000e+00  -1.0676873071454372e-06 -3.4318494111652517e-08 0.0000000000000000e+00  -1.0193087972545567e-06 -2.5342577855444212e-09 0.0000000000000000e+00  -8.7656381174700123e-07 -3.9215937274149256e-08 0.0000000000000000e+00  -5.4210030084387351e-07 -1.2832523309379530e-07 0.0000000000000000e+00  -4.7575046744113747e-07 -7.8389913603403803e-08 0.0000000000000000e+00  -7.8819515875099766e-07 -6.7216474927784115e-08 0.0000000000000000e+00  -4.2849963851061959e-07 -6.9450270887703198e-08 0.0000000000000000e+00  -2.2921437599722588e-06 1.2281380488217738e-07 0.0000000000000000e+00  2.2420461670143697e-06 -5.8794667402336670e-07 0.0000000000000000e+00  -2.4080317029566022e-06 4.6485714104816494e-07 0.0000000000000000e+00  1.6705331118842617e-01 -8.1112695175684507e-02 0.0000000000000000e+00  1.2835108957417051e-06 1.7209125735628861e-07 0.0000000000000000e+00  2.1410853666230906e-01 1.4810758021036770e-03 0.0000000000000000e+00  2.6595167111990431e-01 -3.4851340297995033e-02 0.0000000000000000e+00  1.0806207705674531e-01 3.6366898541424645e-03 0.0000000000000000e+00  3.0517183448952750e-01 1.0712613478882158e-01 0.0000000000000000e+00  2.0592383273232676e-01 9.7048455379690208e-04 0.0000000000000000e+00  2.9905771637088707e-01 -7.5639643290543485e-02 0.0000000000000000e+00  1.9871178690555025e-01 1.5358129154287309e-02 0.0000000000000000e+00  6.8506159094369440e-02 6.0827020529667007e-02 0.0000000000000000e+00  2.0552668199767626e-01 6.8742020330904346e-05 0.0000000000000000e+00  2.0545964538313516e-01 3.4863092772873365e-06 0.0000000000000000e+00  1.8838283523896218e-01 7.3302784328719076e-05 0.0000000000000000e+00  7.5234908571022663e-02 3.8957102942853942e-08 0.0000000000000000e+00  2.7319256049611962e-01 -1.4429643562870473e-08 0.0000000000000000e+00  2.1474605663400967e-01 -2.7863806081065390e-06 0.0000000000000000e+00  2.3880887083644076e-01 7.1430345233982631e-02 0.0000000000000000e+00  1.6962135663479658e-01 3.3599599179275712e-06 0.0000000000000000e+00  1.8159180020997978e-01 6.0635129478481811e-03 0.0000000000000000e+00  1.9291473256147601e-01 2.3842468286217450e-03 0.0000000000000000e+00  2.7521882151999205e-01 -4.9010655343723807e-02 0.0000000000000000e+00  1.8386623691187659e-01 3.2019634307549928e-06 0.0000000000000000e+00  1.8878332417264218e-01 3.2983485730707661e-04 0.0000000000000000e+00  1.8168807592834457e-01 -2.7744466825081207e-02 0.0000000000000000e+00  3.9936001209717581e-01 -5.5766500188150422e-02 0.0000000000000000e+00  3.1917734636867458e-02 6.1688677900229695e-03 0.0000000000000000e+00  1.8841100241251832e-01 2.0970930287200198e-06 0.0000000000000000e+00  1.7624789189359577e-01 -5.6961775375591718e-03 0.0000000000000000e+00  1.9140941813682508e-01 2.5805154244153763e-03 0.0000000000000000e+00  1.6501490877391756e-01 3.0075405875430107e-03 0.0000000000000000e+00  8.4464328435915392e-02 -4.2113815686247828e-02 0.0000000000000000e+00  4.3012204292548278e-01 -3.4851930156801228e-02 0.0000000000000000e+00  6.3409833539043940e-07 -1.7978679974291040e-07 0.0000000000000000e+00  2.1972271398580168e-01 8.9612125010311600e-05 0.0000000000000000e+00  -8.9191442383004380e-07 9.4667527298791285e-08 0.0000000000000000e+00  1.9861740330072419e-01 3.1716574682111911e-04 0.0000000000000000e+00  3.4422676465852858e-01 -9.7916254468896013e-02 0.0000000000000000e+00  2.2002196314203243e-01 9.5904767489854575e-03 0.0000000000000000e+00  1.2576773299635066e-01 7.1504693579181267e-02 0.0000000000000000e+00  2.3156938965705801e-01 1.4175520562433893e-02 0.0000000000000000e+00  2.0872153169053889e-01 2.4690240606551606e-02 0.0000000000000000e+00  1.4776945704744623e-01 7.4200673469885084e-02 0.0000000000000000e+00  4.5952256834380545e-01 -1.1271207292274463e-02 0.0000000000000000e+00  6.3942254245974869e-02 3.7871164123420439e-02 0.0000000000000000e+00  -2.4996820937083200e-07 -1.0493340424421610e-07 0.0000000000000000e+00  1.4791964722286433e-01 -5.1357994885195055e-06 0.0000000000000000e+00  -1.6606936575844074e-06 -1.4823500994788336e-09 0.0000000000000000e+00  -1.2525352422035323e-06 5.5644848899780461e-09 0.0000000000000000e+00  -5.3530336104953904e-07 -2.1141271894487295e-07 0.0000000000000000e+00  2.1967064592239124e-01 2.7239808614580728e-03 0.0000000000000000e+00  -1.7739102499755218e-06 1.0144459021367316e-08 0.0000000000000000e+00  4.0328612321238588e-01 4.2838823093789682e-02 0.0000000000000000e+00  3.7360155051175459e-01 7.8136016783464948e-02 0.0000000000000000e+00  1.5698138438106760e-01 6.2561387292575559e-05 0.0000000000000000e+00  3.4342982105089798e-01 1.3440457138833533e-02 0.0000000000000000e+00  -1.0299518376489494e-06 -6.4521119716888624e-09 0.0000000000000000e+00  -9.4089043785886407e-08 -3.8041903296101046e-09 0.0000000000000000e+00  1.7809450115859097e-06 4.2484384999396894e-07 0.0000000000000000e+00  1.6170540307318401e-01 -6.5231926387691036e-06 0.0000000000000000e+00  1.2173110429380860e-01 1.3821908765906459e-02 0.0000000000000000e+00  -3.0639374083883795e-07 -7.4956587852356680e-08 0.0000000000000000e+00  1.4107559607961975e-01 -2.3379058151299786e-02 0.0000000000000000e+00  1.5786111890327212e-01 1.4915202184343929e-01 0.0000000000000000e+00  4.0047365583637923e-01 -3.7767569801240658e-02 0.0000000000000000e+00  1.6193086589602342e-06 -2.2830489083784127e-07 0.0000000000000000e+00  1.0311622549576270e-01 5.0937882851857519e-02 0.0000000000000000e+00  2.1879062922901601e-01 5.9411276082255117e-03 0.0000000000000000e+00  1.6699882954636175e-01 2.8773146824279794e-04 0.0000000000000000e+00  -1.0800245550648362e-06 2.4840182656812626e-07 0.0000000000000000e+00  1.8083878581529808e-02 -2.2418652854068903e-02 0.0000000000000000e+00  2.1834558056008854e-01 7.7796196778574822e-04 0.0000000000000000e+00  3.0058710956540352e-01 -1.0466695297313060e-01 0.0000000000000000e+00  2.3740376361072027e-01 -1.8396378570951513e-02 0.0000000000000000e+00  1.5807629994846434e-01 5.0419100040543802e-04 0.0000000000000000e+00  1.9951481220014286e-01 -7.2668964385468271e-02 0.0000000000000000e+00  2.3667364521209389e-01 2.4975679361851740e-02 0.0000000000000000e+00  4.1530397596044794e-02 2.4966634518611971e-02 0.0000000000000000e+00  1.6937245726666936e-01 -3.8179433142975880e-02 0.0000000000000000e+00  3.1672937306901718e-02 2.1607573106044151e-02 0.0000000000000000e+00  2.1057508791892796e-01 7.3815732780150353e-03 0.0000000000000000e+00  3.5970652983461589e-02 1.5592623448447088e-02 0.0000000000000000e+00  1.0320815640273943e-01 -2.0591110896168486e-02 0.0000000000000000e+00  -9.6841387122702509e-07 -1.4135159976849410e-07 0.0000000000000000e+00  -4.3401170996416983e-07 -1.9540219587059509e-08 0.0000000000000000e+00  -5.9695543908593413e-07 3.6780283942456550e-07 0.0000000000000000e+00  3.7913671606605492e-01 -7.6438053372645531e-02 0.0000000000000000e+00  7.8081924618706250e-02 3.1406522762638098e-02 0.0000000000000000e+00  -2.1688001114693227e-06 -1.0198593930532418e-07 0.0000000000000000e+00  -8.1515024008481348e-07 -1.7665183227294169e-08 0.0000000000000000e+00  1.5254684432553098e-01 7.2414718509625350e-04 0.0000000000000000e+00  2.1229948284941974e-01 1.9765941150154132e-04 0.0000000000000000e+00  -7.1274785253908672e-07 -7.4509972983907778e-10 0.0000000000000000e+00  -5.2728747341190376e-07 -4.5761331646824393e-08 0.0000000000000000e+00  -1.5133374558615797e-06 -9.3902914205813531e-08 0.0000000000000000e+00  -1.4755322710259030e-07 -5.0108107994515973e-10 0.0000000000000000e+00  -9.7356145299553147e-08 -6.9833643840105396e-11 0.0000000000000000e+00  3.9649489629971991e-07 -8.9101562342847688e-08 0.0000000000000000e+00  -2.1402631170759966e-06 -2.7086516753758712e-07 0.0000000000000000e+00  -2.9716472449340901e-06 4.0563225101120611e-07 0.0000000000000000e+00  -2.9556831212851857e-07 5.3742119028999246e-08 0.0000000000000000e+00  3.0616233220415336e-06 -7.0934537437233333e-07 0.0000000000000000e+00  1.4892614905459252e-07 -4.1316537322620819e-09 0.0000000000000000e+00  -9.1230123617672185e-07 5.2105579601330705e-10 0.0000000000000000e+00  -3.1338825125646102e-07 -1.4780775583667601e-10 0.0000000000000000e+00  7.2035613618905330e-03 1.7224835918114963e-02 0.0000000000000000e+00  1.1473919927965634e-01 8.0093652528833593e-03 0.0000000000000000e+00  1.2521381196061687e-01 -1.6425592368164717e-02 0.0000000000000000e+00  1.4485554475104720e-01 3.0010315254800621e-04 0.0000000000000000e+00  2.9186695617042663e-01 7.6568806192435807e-02 0.0000000000000000e+00  3.3593503476037800e-01 5.3849442213173303e-02 0.0000000000000000e+00  3.1537516716658537e-01 2.6413955369107324e-02 0.0000000000000000e+00  1.5299154783426239e-01 7.9027579784261319e-06 0.0000000000000000e+00  2.2007576082473440e-01 1.4075973145345453e-03 0.0000000000000000e+00  2.3886936855618840e-01 2.2160116361952749e-04 0.0000000000000000e+00  1.2004470578142405e-01 4.6781107350202036e-03 0.0000000000000000e+00  2.1995685750993571e-01 -2.4759193357712403e-06 0.0000000000000000e+00  2.2026071173039632e-01 -1.1607043285520626e-06 0.0000000000000000e+00  2.1359670492355745e-01 1.3545549369405055e-06 0.0000000000000000e+00  2.1840877492310226e-01 3.8186987900900770e-05 0.0000000000000000e+00  1.3680300507463156e-01 1.1588113627969270e-05 0.0000000000000000e+00  1.4522708533908607e-01 7.6454040322137377e-06 0.0000000000000000e+00  2.0197792456920122e-01 1.9050677336659891e-01 0.0000000000000000e+00  4.5639743048451260e-02 5.8144550541066306e-02 0.0000000000000000e+00  9.7747407164467073e-02 6.6029573969891347e-03 0.0000000000000000e+00  2.1973879923164188e-01 -5.6220301171384969e-03 0.0000000000000000e+00  1.8295650949433609e-01 1.3253348774410268e-03 0.0000000000000000e+00  2.1797731058650091e-01 6.9914293465717721e-04 0.0000000000000000e+00  2.3018299459948532e-01 6.6167526535266105e-03 0.0000000000000000e+00  2.1165375264117717e-01 4.6780466478291752e-06 0.0000000000000000e+00  1.4305060153143370e-01 2.0825863777824949e-03 0.0000000000000000e+00  2.1835824626209011e-01 3.4957928701003058e-03 0.0000000000000000e+00  2.7873866071398867e-01 -5.3445046077117080e-02 0.0000000000000000e+00  1.4063340307576772e-01 6.8940519631101522e-05 0.0000000000000000e+00  2.1391011891098785e-01 2.2667335702617456e-04 0.0000000000000000e+00  1.3799933738854064e-01 9.3164591586859586e-06 0.0000000000000000e+00  1.6009318017370938e-01 8.1439944082443566e-02 0.0000000000000000e+00  2.4720396387412116e-01 1.3046411980663100e-01 0.0000000000000000e+00  2.1782629066474724e-01 3.1090562578869597e-02 0.0000000000000000e+00  8.9134317512731612e-02 -4.1597835270000792e-03 0.0000000000000000e+00  3.3168525995553139e-01 -1.1271897123294874e-01 0.0000000000000000e+00  1.8568637589544523e-01 1.0422690589281998e-02 0.0000000000000000e+00  3.9204440141500729e-01 1.8252969431608871e-02 0.0000000000000000e+00  2.1341671166299855e-01 7.1409639204817795e-03 0.0000000000000000e+00  1.9730371658044288e-01 1.1288116514481666e-02 0.0000000000000000e+00  3.4382287309491455e-01 1.8495877041482320e-01 0.0000000000000000e+00  2.7441057269661084e-01 3.5893771385752171e-02 0.0000000000000000e+00  2.3199801403332240e-01 7.2206230342979127e-02 0.0000000000000000e+00  2.2028059933445537e-01 1.9462277079797103e-04 0.0000000000000000e+00  2.0046031821371849e-01 -1.4583237795695470e-05 0.0000000000000000e+00  2.1472369140513170e-01 1.2081280495469460e-06 0.0000000000000000e+00  3.1318619564017758e-01 -4.0949647409246004e-02 0.0000000000000000e+00  1.2597177085046968e-01 2.5482399239078201e-02 0.0000000000000000e+00  1.2649000578675060e-01 8.8137617307499901e-04 0.0000000000000000e+00  2.0788852971434085e-01 2.1375438045185598e-02 0.0000000000000000e+00  1.5893091679523888e-01 4.7788962565728607e-02 0.0000000000000000e+00  2.1420546075221245e-01 4.6118659748648830e-03 0.0000000000000000e+00  1.4270564635530075e-01 1.8821403721277598e-03 0.0000000000000000e+00  1.3451016096012577e-01 -3.7820702491951130e-02 0.0000000000000000e+00  4.6695050647879033e-01 4.5202436237999230e-02 0.0000000000000000e+00  1.5735727421785825e-01 -8.3459399366024797e-02 0.0000000000000000e+00  3.2957877913895856e-01 -4.9859372256501090e-02 0.0000000000000000e+00  2.0426234131733284e-01 8.5766421071556158e-06 0.0000000000000000e+00  2.2332891121466292e-01 -1.8741006962103676e-02 0.0000000000000000e+00  2.0291740596687380e-01 1.6224088674006885e-03 0.0000000000000000e+00  2.1534516253824515e-01 3.8857528400897249e-03 0.0000000000000000e+00  2.0749572126405619e-01 -1.1307591718667381e-02 0.0000000000000000e+00  -1.5563719613996092e-02 5.9971720280075263e-03 0.0000000000000000e+00  1.0942513134921557e-01 9.4764460040729513e-05 0.0000000000000000e+00  1.0735946274251246e-01 -8.3713621374345050e-03 0.0000000000000000e+00  9.9218985263230336e-02 1.1805102421477047e-02 0.0000000000000000e+00  6.2972728437063738e-02 1.7760786440665234e-02 0.0000000000000000e+00  1.9978880494407786e-01 1.9459002448198960e-05 0.0000000000000000e+00  1.1711989641639631e-01 -1.1436140423126859e-06 0.0000000000000000e+00  4.0462592499471739e-01 -3.8311557868901225e-02 0.0000000000000000e+00  2.1472056670383177e-01 4.0232696534415595e-04 0.0000000000000000e+00  2.0566760038496931e-01 4.0463380799218650e-05 0.0000000000000000e+00  3.5785436048383565e-02 8.5028189425389299e-08 0.0000000000000000e+00  7.8286002782307892e-02 -3.1203778726483666e-02 0.0000000000000000e+00  1.5903439403538899e-01 4.2275771855174178e-02 0.0000000000000000e+00  2.1718863277506442e-01 4.0182987290586615e-05 0.0000000000000000e+00  2.0355574239251845e-01 7.6432241931861705e-04 0.0000000000000000e+00  1.1027706948259072e-01 -1.1347732019868509e-02 0.0000000000000000e+00  2.5192397728682675e-01 -5.1898467415162908e-02 0.0000000000000000e+00  3.8079553135876110e-01 3.5749539816008563e-02 0.0000000000000000e+00  1.2851012985365567e-01 8.8946500290896960e-04 0.0000000000000000e+00  1.0771411192224024e-01 8.6230036776370340e-05 0.0000000000000000e+00  1.2007162260727831e-01 -8.6156700383804358e-06 0.0000000000000000e+00  -4.0085782885996620e-03 1.7647335897457084e-02 0.0000000000000000e+00  3.3356381434259913e-01 1.1619844258407675e-08 0.0000000000000000e+00  1.0911155027675450e-01 2.1451717547754691e-03 0.0000000000000000e+00  3.8962734984423025e-01 4.4004999543790849e-03 0.0000000000000000e+00  1.2427846533446614e-01 -3.0165503143342172e-06 0.0000000000000000e+00  2.1853065251622722e-01 -3.4379086152118876e-02 0.0000000000000000e+00  1.1852650893629529e-01 -5.5022136553246675e-08 0.0000000000000000e+00  2.1475209598103012e-01 5.2464708406287794e-06 0.0000000000000000e+00  1.2006208473965313e-01 9.0656768657070012e-06 0.0000000000000000e+00  2.1733316449512377e-01 -6.6993395789922108e-08 0.0000000000000000e+00  1.2008670364490583e-01 1.6928441873735279e-05 0.0000000000000000e+00  1.9835883378279687e-01 4.2886105217230320e-03 0.0000000000000000e+00  2.1811909715485570e-01 6.2206316762612204e-07 0.0000000000000000e+00  1.2408992334390458e-01 -2.7333624547699440e-03 0.0000000000000000e+00  1.0025754195894342e-01 1.0340593163886702e-03 0.0000000000000000e+00  2.0101152412570941e-01 3.2607833573028754e-03 0.0000000000000000e+00  1.8700778883159918e-02 -1.3483423863110827e-02 0.0000000000000000e+00  3.1355461245240768e-01 -1.5918635339123455e-02 0.0000000000000000e+00  2.8779940259798609e-01 -1.7760739270308339e-02 0.0000000000000000e+00  4.1255250459000364e-01 -4.5526819340439201e-02 0.0000000000000000e+00  1.1031135111159730e-01 4.0595936928835424e-04 0.0000000000000000e+00  3.0931980760412642e-01 -4.6833137117829632e-02 0.0000000000000000e+00  2.7684647212017227e-01 -2.1470413178814231e-02 0.0000000000000000e+00  1.9474312770915064e-01 5.5468587355414143e-06 0.0000000000000000e+00  2.3451997478390998e-01 -4.8394563055526557e-02 0.0000000000000000e+00  9.1765598675558488e-02 3.9417046563827130e-06 0.0000000000000000e+00  1.4939584084031074e-01 -1.3878083614893538e-02 0.0000000000000000e+00  2.4358664459428611e-01 -1.533074