<?xml version="1.0"?>
<VTKFile type="UnstructuredGrid"  version="0.1"  >
<UnstructuredGrid>
<Piece  NumberOfPoints="1404" NumberOfCells="2604">
<Points>
<DataArray  type="Float64"  NumberOfComponents="3"  format="ascii">0 0.41 0  0 0 0  2.2 0 0  2.2 0.41 0  0.2353553390593274 0.2353553390593274 0  0.25 0.2 0  0.2353553390593274 0.1646446609406726 0  0.2 0.15 0  0.1646446609406726 0.1646446609406726 0  0.15 0.2 0  0.1646446609406726 0.2353553390593274 0  0.2 0.25 0  0.6923879532511287 0.188268343236509 0  0.7 0.15 0  0.6923879532511287 0.1117316567634909 0  0.6707106781186547 0.07928932188134523 0  0.6382683432365089 0.05761204674887133 0  0.6 0.04999999999999999 0  0.5617316567634909 0.05761204674887134 0  0.5292893218813453 0.07928932188134524 0  0.5076120467488713 0.111731656763491 0  0.5 0.15 0  0.5076120467488713 0.188268343236509 0  0.5292893218813453 0.2207106781186547 0  0.561731656763491 0.2423879532511287 0  0.6 0.25 0  0.6382683432365089 0.2423879532511287 0  0.6707106781186547 0.2207106781186547 0  1.1 0 0  0 0.205 0  1.1 0.41 0  0.55 0 0  0.55 0.41 0  0.275 0 0  0.8250000000000001 0 0  0.275 0.41 0  0.8250000000000001 0.41 0  0.6875 0 0  0.61875 0 0  1.65 0.41 0  1.65 0 0  1.375 0 0  1.375 0.41 0  1.925 0 0  1.925 0.41 0  1.5125 0.205 0  1.7875 0.205 0  0.9625000000000001 0.205 0  1.2375 0.205 0  2.2 0.205 0  1.99375 0.2152743902439024 0  0.4125 0.41 0  2.0625 0 0  2.0625 0.41 0  2.2 0.3075 0  1.7875 0.41 0  1.375 0.1486128048780488 0  1.5125 0 0  1.7875 0 0  1.5125 0.41 0  0.9625000000000001 0.41 0  0.4125 0 0  0.1375 0 0  0.1375 0.41 0  0.6875 0.41 0  0.9625000000000001 0 0  1.2375 0 0  1.1 0.1486128048780488 0  1.2375 0.41 0  1.65 0.1486128048780487 0  0.823495464168302 0.2603780552348366 0  0.3738707794507017 0.2720196349488618 0  0.3662291281331582 0.1311456406657909 0  1.676715909090909 0.2793064024390244 0  1.126715909090909 0.2793064024390244 0  1.348284090909091 0.2793064024390244 0  0.8287581077665108 0.1302150898054257 0  1.894702181800738 0.1282910975492754 0  2.092797818199262 0.1282910975492754 0  1.85625 0.3075 0  0 0.3075 0  0 0.1025 0  2.099172119769978 0.25625 0  0.4752414543992246 0.3180372603390748 0  1.99375 0.08395950269330846 0  1.459960956013612 0.3075 0  1.569025960719943 0.2986889805672169 0  1.03125 0.3278689922742084 0  1.959375 0.3126371951219512 0  1.749222215368287 0.1025 0  1.275777784631713 0.1025 0  0.9228016959331474 0.3075 0  1.000777784631713 0.1025 0  2.2 0.1025 0  1.225938124459196 0.3075 0  1.550777784631713 0.1025 0  1.44375 0.07430640243902442 0  1.16875 0.07430640243902439 0  0.7562500000000001 0.3358727844323386 0  0.89375 0 0  1.899250267340833 0.2229966846119207 0  0.61875 0.41 0  1.766482954545455 0.2934032012195123 0  1.046078563095834 0.2389031808701145 0  1.421109702350723 0.2261157654379721 0  0.07567171807980319 0.25625 0  0.2511897295290552 0.3235829392832554 0  0.07655002503762308 0.1488653460959645 0  0.1377245246847496 0.3206030474919778 0  0.6694099692696568 0.3242771941727899 0  0.9168971191497528 0.1295727156104653 0  0.7562500000000001 0 0  2.118919042110979 0.3422084711244843 0  2.13125 0 0  0.06875000000000001 0 0  1.30625 0.41 0  1.597888256393107 0.2173787389261347 0  0.34375 0.41 0  0.2493272016354703 0.08091360081773515 0  0.5588896233436766 0.3264056208677571 0  1.829299675393195 0.07400700849299596 0  0.1334079128307869 0.08523463035786674 0  1.71875 0.41 0  0.06875000000000001 0.41 0  1.16875 0.41 0  2.038220665644273 0.332420740103091 0  0.8810647413215221 0.2027360103977071 0  0.34375 0 0  0.7453891198966415 0.2471459041008237 0  0.42112093004955 0.1988123139090554 0  0.8314023090855964 0.3351170841770613 0  0.89375 0.41 0  0.7906250000000001 0.06615386481594063 0  1.452769549894695 0.1548122580621249 0  1.369219062229598 0.07430640243902442 0  1.30625 0 0  1.07420695807087 0.07430640243902439 0  1.720943423819132 0.1714577452753128 0  1.157188124459196 0.205 0  1.304056576180868 0.1714577452753128 0  1.67579304192913 0.07430640243902437 0  1.209670467133757 0.136210026696477 0  0.4312800784902823 0.08036147352247747 0  0.8723959680194693 0.07066860609690805 0  1.025335513626278 0.1700681449722324 0  0.7945632284247136 0.1940204203251442 0  0.378125 0.3452261501101892 0  0.3307109909790086 0.2037165635083759 0  0.3009701032039409 0.2702970083403109 0  0.20625 0.41 0  1.58125 0 0  0.4812500000000001 0 0  0.9838963872396855 0.2722244191167347 0  0.06772484939107212 0.3260067317374387 0  0.20625 0 0  1.58125 0.41 0  1.631724228912893 0.3381867502687533 0  1.825608881788174 0.14499488549201 0  1.85625 0 0  1.44375 0 0  1.44375 0.41 0  1.85625 0.41 0  2.13125 0.41 0  0.7562500000000001 0.41 0  0.4812500000000001 0.41 0  1.16875 0 0  1.03125 0.41 0  1.03125 0 0  1.71875 0 0  1.99375 0 0  1.99375 0.41 0  0.9408708167433545 0.0651989315768642 0  1.340625 0.3489494290853124 0  1.134375 0.3489494290853123 0  1.700180620188976 0.3438659752031281 0  0.29668452290037 0.1318471691375986 0  0.3175441051360096 0.06496934809856265 0  0.06509151636162461 0.08140814015999148 0  2.135782184673599 0.07126652247502523 0  1.668441847249787 0.2129203728327609 0  1.295782514339747 0.2378437748815763 0  1.409375 0.3520314716057996 0  2.129248544730567 0.1906135162504124 0  2.060771381434487 0.1989445750470348 0  2.013252586573865 0.1496169464686054 0  1.942766402200229 0.1734448904596831 0  1.895522487186454 0.06076163953489683 0  2.069553871656643 0.06605731020975725 0  0.4670911801404742 0.2498408582391372 0  0.7622743084658112 0.1264100838268133 0  1.274680914880868 0.3520219391081363 0  0.3148669572599245 0.3331753056385887 0  1.614713220494657 0.09473434380863296 0  1.72990325744076 0.2380068107952482 0  1.356580098625191 0.2120393231351682 0  2.034370752044885 0.2668681600792073 0  1.51768709249349 0.3426260931494756 0  1.561883724969884 0.1650446847858835 0  1.197344062229598 0.2523725417393646 0  1.804085235518364 0.3468178408964637 0  1.817887819205233 0.2589243285818559 0  1.905897727272727 0.3485060975609756 0  0.7296439733931823 0.06337466644369745 0  0.4250935971865949 0.1394919578475796 0  0.3773030136511669 0.05130372097998036 0  1.192836486056382 0.3562350748565544 0  1.1029124365364 0.226143510831178 0  1.28257088594801 0.2944411014911587 0  0.1905185804731426 0.06029880676029167 0  1.474860187679412 0.2504218616229368 0  1.406767003493824 0.2829282258560709 0  0.5209826960981064 0.2830664557824064 0  0.5131119502780163 0.3617405848213254 0  0.1948220106098172 0.3081993407644811 0  1.845656689180403 0.1998310418452388 0  2.144958525570388 0.2909790873294231 0  2.2 0.15375 0  0.8833025251326762 0.2625402923007629 0  0.171875 0.3653875762360952 0  1.57794966442982 0.3540357145964566 0  0.446875 0.366068291212731 0  0.4272051715206439 0.2891929346190664 0  1.508991196088596 0.1421783375065625 0  1.50436820029908 0.06143401634903343 0  1.223857000523521 0.08235548624535324 0  0.6137904613287555 0.3066826366281556 0  1.153316824384777 0.1289850171317838 0  0.9751573703656133 0.327632618473408 0  2.148922302309752 0.1258841779285271 0  0.9281250000000001 0.3643758685795699 0  1.621993280276081 0.2841214267927899 0  1.550118654119087 0.2461998729100966 0  1.327182649291491 0.1216967252533594 0  0.9939955742738924 0.04663549843168518 0  1.753125 0.04556020050186112 0  1.271875 0.04556020050186116 0  0.9734326767716519 0.1506854560854393 0  0.103125 0.3675775577080512 0  1.94956388244759 0.1180512551534177 0  1.949997712993411 0.04965831614304109 0  0.717433898748555 0.295596016333797 0  1.771961817615021 0.1530278789497521 0  1.909246823951428 0.2812757146784527 0  0 0.35875 0  1.050632804931928 0.1226269704412814 0  0.05695108326502596 0.2024009637347154 0  1.948575539857022 0.2445328248721197 0  1.697271520964565 0.1233917627620729 0  1.065625 0.3689344961371042 0  1.085849084308977 0.3170853572226867 0  0.1015495998772944 0.04226029099983852 0  1.577403511714593 0.05463601888079143 0  1.751571320346033 0.3651102912045228 0  2.2 0.35875 0  0.7441773632462837 0.1786786606458751 0  0 0.05125 0  1.466879772203159 0.3611261772912453 0  0.6282230348858767 0.3577675483994025 0  1.990280163552011 0.3564754268533217 0  1.17471064520912 0.2990917256188288 0  0 0.25625 0  2.2 0.25625 0  2.2 0.05125 0  0 0.15375 0  1.853978576207987 0.35875 0  1.515638456102889 0.2882700110184686 0  2.150453692751374 0.2387066338105111 0  1.323782677156475 0.04897634338873398 0  1.409375 0.03715320121951221 0  1.406484531114799 0.1087852750766809 0  1.134375 0.03715320121951219 0  0.721875 0.3729363922161693 0  0.7941695928236929 0.3696489254637395 0  0.7934827162619036 0.3013409431456604 0  1.627401732573545 0.04552157221025036 0  0.9352049974617431 0.2507047965699472 0  0.8763260682738339 0.3611103317460093 0  2.045405893604797 0.1105340662939892 0  1.255408269734577 0.1577307500159216 0  2.028125 0.03707597992059326 0  1.003030137506755 0.3689344961371042 0  1.248258025468107 0.2565907092181813 0  1.203125 0.03661323374043041 0  0.4800125512335631 0.0549472816999725 0  2.072662025974815 0.2975086504196739 0  0.240625 0.3729825336867542 0  1.113252391110535 0.10238286244357 0  1.071052763974265 0.1885202618768825 0  0.8738809401657862 0.3106483608284829 0  0.6786819423003397 0.2677558482644021 0  1.887722846421017 0.1760882698830035 0  1.472640588990488 0.1118278026240017 0  0.5843750000000001 0.41 0  1.865937103925594 0.2604137786483804 0  1.463913572748262 0.2030442564990043 0  1.376426316059077 0.3186741374914345 0  0.1038643885363755 0.2162701735320032 0  0.1769473813227781 0.1070849728467114 0  0.458787839809176 0.171541653775316 0  0.240625 0 0  0.04179569703428024 0.2877217852556549 0  0.1258346557601885 0.2699740073054968 0  1.722140693354707 0.282908100935778 0  0.41206179117512 0.2448172567039922 0  0.3702471778075604 0.2265217604228704 0  0.3714881805374215 0.1786967818665642 0  1.77397096061971 0.2481483237422926 0  2.105123889160691 0.03743885948498647 0  1.001138337938679 0.229719337663998 0  1.051242910646791 0.2854826559431138 0  1.395420985247586 0.18
[...]
<PointData  Vectors="f_37"> 
<DataArray  type="Float64"  Name="f_37"  NumberOfComponents="3" format="ascii">2.4942682341032922e-07 4.5126709406982153e-08 0.0000000000000000e+00  -4.4538728912180998e-06 -3.5422716048052966e-07 0.0000000000000000e+00  -6.4796043544924428e-07 1.2743247658412911e-09 0.0000000000000000e+00  -8.2938377852008191e-07 3.2175769093657001e-10 0.0000000000000000e+00  -4.7194920245334842e-08 3.2754180677891357e-07 0.0000000000000000e+00  1.1777998272354903e-07 -1.6439399547258512e-08 0.0000000000000000e+00  1.2430269763051802e-07 1.8693901563712321e-07 0.0000000000000000e+00  -9.3085311855769129e-07 -9.7038148712646729e-08 0.0000000000000000e+00  -8.4562952606553479e-07 -1.1878613976276572e-07 0.0000000000000000e+00  1.2467501177606348e-07 -4.5756934231290867e-07 0.0000000000000000e+00  -9.2740506718987246e-07 -5.1031896987371374e-07 0.0000000000000000e+00  -1.0397602740594753e-06 -2.4504995437742950e-07 0.0000000000000000e+00  3.8932821864510437e-07 7.2040482946739925e-08 0.0000000000000000e+00  -3.0327769351928572e-07 -2.8874019469658687e-07 0.0000000000000000e+00  -3.2360793022416735e-07 4.1989130935949657e-08 0.0000000000000000e+00  -8.3375262944399103e-07 -2.3591034405105015e-07 0.0000000000000000e+00  2.3905606699733641e-06 3.5641905473388996e-07 0.0000000000000000e+00  3.4795917161343237e-01 9.6773998909070028e-02 0.0000000000000000e+00  1.5341196140252535e-06 -1.3506715754653844e-07 0.0000000000000000e+00  -1.3276210353206689e-06 3.6276414486891890e-07 0.0000000000000000e+00  -1.3456624196569224e-06 -2.9175553588098887e-07 0.0000000000000000e+00  -1.2497735783462768e-08 -3.9106616324666671e-07 0.0000000000000000e+00  5.5578714868957069e-07 1.5154227636958018e-07 0.0000000000000000e+00  -4.2262794068498349e-07 -1.8618482496699917e-06 0.0000000000000000e+00  -3.1734667283621394e-06 -1.6264435521069157e-06 0.0000000000000000e+00  -4.5716576076433137e-06 -3.8280956872349011e-07 0.0000000000000000e+00  -4.4867142427818448e-06 -7.0096393201182320e-08 0.0000000000000000e+00  -3.3855380896799393e-07 1.2612633856631666e-07 0.0000000000000000e+00  1.7014109849643328e-06 -3.7198408371266918e-07 0.0000000000000000e+00  1.6583342529720244e-01 -4.2749505937347483e-07 0.0000000000000000e+00  -1.1329790318396335e-06 -8.0394257423691787e-08 0.0000000000000000e+00  2.9695283119558839e-06 3.3700715621422046e-08 0.0000000000000000e+00  -5.2970908116611152e-07 -9.6456799825802464e-08 0.0000000000000000e+00  4.0724024881683197e-07 4.7352248355050667e-08 0.0000000000000000e+00  -3.4703968777353176e-07 -2.7072771901142865e-08 0.0000000000000000e+00  -1.0384669564382141e-06 1.1869937473896376e-09 0.0000000000000000e+00  -1.4700413509407823e-06 8.4350417433912997e-08 0.0000000000000000e+00  -2.5327716705408611e-06 -4.7491992789320913e-07 0.0000000000000000e+00  -8.7480065841908934e-06 -1.1875983586374472e-06 0.0000000000000000e+00  -1.3954593066537623e-06 -9.4175828986890508e-08 0.0000000000000000e+00  -8.7909501729324684e-07 -8.3326940294755749e-08 0.0000000000000000e+00  -2.9987635032612955e-06 5.9312379303347771e-07 0.0000000000000000e+00  1.3860667919815491e-06 3.4852160600995793e-07 0.0000000000000000e+00  -5.0669742588237532e-07 -4.4045132639926428e-10 0.0000000000000000e+00  -4.8204411424834313e-08 6.4753555983761596e-10 0.0000000000000000e+00  2.3922952578708348e-01 1.9186602888748003e-02 0.0000000000000000e+00  2.2825988829654739e-01 2.6829557773832592e-03 0.0000000000000000e+00  1.6039945762979457e-01 -6.3935306378638951e-03 0.0000000000000000e+00  3.0507764339727561e-01 -9.5393362527351477e-02 0.0000000000000000e+00  2.2836057815430802e-01 -6.5329293418652776e-05 0.0000000000000000e+00  2.2803138163160844e-01 -1.2564410347135465e-04 0.0000000000000000e+00  2.6018315947003273e-07 -3.7961895658262843e-09 0.0000000000000000e+00  1.5406079380577152e-07 4.0956743844574452e-10 0.0000000000000000e+00  -5.3571160660995750e-07 1.8001935322314295e-09 0.0000000000000000e+00  1.8598133999394464e-01 -4.7360217856984332e-05 0.0000000000000000e+00  -8.2561762854872475e-07 -1.5905255335011584e-08 0.0000000000000000e+00  2.4929462579811473e-01 -5.6498814645744876e-02 0.0000000000000000e+00  -1.4664239252183767e-06 4.9453807863393212e-08 0.0000000000000000e+00  -9.4840064998596141e-07 -1.7499274161854435e-08 0.0000000000000000e+00  -9.9969459255001048e-07 -1.5504042946489262e-07 0.0000000000000000e+00  -3.7610545550128905e-07 -6.5953803880911204e-08 0.0000000000000000e+00  -3.8311394794368853e-07 -9.1748789657900600e-08 0.0000000000000000e+00  -8.5437714301694523e-07 -6.7560324855309294e-08 0.0000000000000000e+00  -3.6909619481986447e-07 -5.7423637619796360e-08 0.0000000000000000e+00  -2.3718970813170089e-06 6.4995608077697964e-08 0.0000000000000000e+00  -4.6596464733805264e-07 9.3632364181949094e-08 0.0000000000000000e+00  1.2695288241250712e-06 -5.1415343196424403e-07 0.0000000000000000e+00  1.3462558075714587e-01 -4.4834147540512631e-03 0.0000000000000000e+00  -1.0242861119606445e-07 3.9005714458147171e-08 0.0000000000000000e+00  2.2342845158574243e-01 1.1023565624775454e-02 0.0000000000000000e+00  2.6422688491281776e-01 -3.8434508906481112e-02 0.0000000000000000e+00  1.0601497391324260e-01 5.3051624925804838e-03 0.0000000000000000e+00  3.0496541109615999e-01 1.0660602721793219e-01 0.0000000000000000e+00  2.0278763826278512e-01 7.8868470955924270e-03 0.0000000000000000e+00  3.5084555499882220e-01 -6.3566487387973297e-02 0.0000000000000000e+00  2.0983949526658549e-01 -2.9000280021505186e-02 0.0000000000000000e+00  6.9963044933902471e-02 4.7255325003636252e-02 0.0000000000000000e+00  2.0658918630062881e-01 1.6650565413945073e-04 0.0000000000000000e+00  2.0653268538876426e-01 -1.0633860442875185e-04 0.0000000000000000e+00  1.8592280362931424e-01 2.9556415544642836e-04 0.0000000000000000e+00  7.5234904975720260e-02 4.7421967745766690e-08 0.0000000000000000e+00  2.7319254521276543e-01 2.1793248718125791e-08 0.0000000000000000e+00  2.1951032030476472e-01 -1.2131331337225892e-04 0.0000000000000000e+00  2.4100283729959845e-01 7.2452778679701055e-02 0.0000000000000000e+00  1.6471488381312260e-01 -9.5251356664673801e-05 0.0000000000000000e+00  1.4632477406993286e-01 1.5586293608577601e-02 0.0000000000000000e+00  1.7488300688167402e-01 1.7303893749441704e-02 0.0000000000000000e+00  3.2051270974959206e-01 -3.0357429920258069e-02 0.0000000000000000e+00  1.8091285212583438e-01 -1.0442770492189459e-04 0.0000000000000000e+00  1.8770803420823612e-01 2.4335519018730293e-03 0.0000000000000000e+00  1.2718653316305306e-01 -5.8486895614252764e-02 0.0000000000000000e+00  3.9132307614536910e-01 -3.7141146110597489e-02 0.0000000000000000e+00  5.1323742041944148e-02 1.9949023556398708e-02 0.0000000000000000e+00  1.8578257228649239e-01 -3.6758309941575032e-05 0.0000000000000000e+00  2.3668010091338501e-01 -4.7000342380691083e-02 0.0000000000000000e+00  2.0474929817557821e-01 9.2028185626540880e-03 0.0000000000000000e+00  1.6922191351712593e-01 -9.9767760534378441e-03 0.0000000000000000e+00  1.8730576570016789e-02 -8.9838188624735069e-03 0.0000000000000000e+00  4.2593184171229331e-01 -3.6025110547674037e-02 0.0000000000000000e+00  -5.8142394326472457e-07 5.8968686527955036e-08 0.0000000000000000e+00  2.2730089861534580e-01 2.6185573865089562e-04 0.0000000000000000e+00  -9.3888784139148070e-07 -6.5686655968775082e-09 0.0000000000000000e+00  1.9696334988890243e-01 2.1168461718959978e-03 0.0000000000000000e+00  2.9215859480200695e-01 -3.7502557843363885e-02 0.0000000000000000e+00  2.4988921367702252e-01 -1.0088731035475633e-02 0.0000000000000000e+00  1.2570119410371774e-01 7.1167653126775671e-02 0.0000000000000000e+00  2.3112402900376319e-01 1.4874755703061080e-02 0.0000000000000000e+00  2.0878979720475521e-01 2.4384799004027471e-02 0.0000000000000000e+00  1.4756886527822066e-01 7.3983280554949057e-02 0.0000000000000000e+00  4.5635194284915237e-01 -1.3844116990731190e-02 0.0000000000000000e+00  7.6346844515332440e-02 2.5027165083839783e-02 0.0000000000000000e+00  -2.1787052845027556e-07 -8.8212536521712601e-08 0.0000000000000000e+00  1.4239058347574135e-01 -5.1102849441427489e-05 0.0000000000000000e+00  -1.6159898353762422e-06 4.1777828387700868e-10 0.0000000000000000e+00  -1.2952398419932386e-06 9.0907208970550489e-09 0.0000000000000000e+00  1.0217041557213180e-06 3.2115789652252413e-07 0.0000000000000000e+00  2.2670858267594385e-01 1.9770291739617345e-02 0.0000000000000000e+00  -1.9102687968432891e-06 -2.0913617819332265e-08 0.0000000000000000e+00  4.0384288108230654e-01 4.2430741771480665e-02 0.0000000000000000e+00  3.7436810195079978e-01 7.7138508252617144e-02 0.0000000000000000e+00  1.5150162001351683e-01 3.6012533144274335e-04 0.0000000000000000e+00  3.4360084879668351e-01 1.3137952507758241e-02 0.0000000000000000e+00  -1.1790580165704532e-06 -5.5120305426301162e-08 0.0000000000000000e+00  -7.8219416545429682e-08 -9.9972056251905724e-09 0.0000000000000000e+00  -6.9201582145906042e-07 -2.4528525760503650e-08 0.0000000000000000e+00  1.5676739511926985e-01 -9.2723491046337679e-05 0.0000000000000000e+00  1.0237002623363814e-01 -1.1684334117267788e-04 0.0000000000000000e+00  -3.0998627850481537e-07 -9.7263739959925098e-08 0.0000000000000000e+00  1.4630393661629915e-01 -2.5332779222805024e-02 0.0000000000000000e+00  1.5523557498285923e-01 1.4949962664795760e-01 0.0000000000000000e+00  3.9513013690224907e-01 -3.4294576155508905e-02 0.0000000000000000e+00  1.8763465943732171e-06 -8.5127947096440021e-08 0.0000000000000000e+00  1.1553346677595493e-01 4.7748183406457818e-02 0.0000000000000000e+00  2.4995108569368935e-01 -1.1678777966547600e-02 0.0000000000000000e+00  1.3959301447425648e-01 -3.1553217053487501e-02 0.0000000000000000e+00  -1.6046450553571831e-06 1.4229514440238934e-07 0.0000000000000000e+00  1.2419565208101006e-02 1.3277997051600546e-02 0.0000000000000000e+00  2.2624956269727928e-01 6.1393734939802803e-03 0.0000000000000000e+00  2.7803403583497632e-01 -6.3487580858480414e-02 0.0000000000000000e+00  2.7085591206437493e-01 -8.9492990966780539e-02 0.0000000000000000e+00  1.5714030869398815e-01 3.6430509561518462e-03 0.0000000000000000e+00  1.6141127653544021e-01 -5.5049027477933110e-02 0.0000000000000000e+00  2.3869715560936763e-01 2.4912669434519769e-02 0.0000000000000000e+00  6.3541669858032557e-02 1.8242940488663581e-02 0.0000000000000000e+00  1.3752157056264849e-01 5.9497721927623815e-03 0.0000000000000000e+00  2.4237107392109308e-02 9.1745199064809779e-03 0.0000000000000000e+00  2.1196409064498098e-01 7.7077806409246328e-03 0.0000000000000000e+00  3.5710317728420683e-02 1.5707184715252814e-02 0.0000000000000000e+00  1.0124088437431696e-01 -2.0105415659376819e-02 0.0000000000000000e+00  -9.3291480692964304e-07 -1.0909516930074072e-07 0.0000000000000000e+00  -2.0277856878685018e-07 -6.7508241768359454e-08 0.0000000000000000e+00  -7.0499402616129673e-07 3.8002899249295914e-07 0.0000000000000000e+00  3.4976212669737305e-01 -3.9217477377173231e-02 0.0000000000000000e+00  7.8041975663601409e-02 3.1208935481372255e-02 0.0000000000000000e+00  -2.2522260905527146e-06 -1.0367671816597251e-07 0.0000000000000000e+00  -1.5169856589942639e-06 -1.6266208799235416e-07 0.0000000000000000e+00  1.3931584531102742e-01 5.6817228518568734e-03 0.0000000000000000e+00  2.1616044040162405e-01 1.1545202308148735e-03 0.0000000000000000e+00  -7.1330599030520846e-07 -4.1507803578860311e-09 0.0000000000000000e+00  -2.1266254296722074e-06 3.8341623399521646e-07 0.0000000000000000e+00  1.1001346400761150e-07 2.3666769809771030e-08 0.0000000000000000e+00  -1.3116906716433213e-07 -2.3910187285556138e-09 0.0000000000000000e+00  -9.2337393064498764e-08 8.8691515232993440e-10 0.0000000000000000e+00  3.8351163385602470e-07 -1.1065225639060687e-08 0.0000000000000000e+00  -2.2333887654243515e-06 -2.6995650994529603e-07 0.0000000000000000e+00  2.7545077246361439e-06 -6.9867724499788466e-07 0.0000000000000000e+00  -1.5656466892237850e-07 -1.0973902559293169e-07 0.0000000000000000e+00  2.6647479841009330e-07 4.6680081129819937e-08 0.0000000000000000e+00  2.8430269977710998e-07 -3.3110800214408279e-08 0.0000000000000000e+00  -8.9398814186469285e-07 1.4707938196024645e-09 0.0000000000000000e+00  -2.8976486270776927e-07 8.1708189256893841e-10 0.0000000000000000e+00  3.6333396100946422e-02 1.0319936531847899e-02 0.0000000000000000e+00  8.6098961511348465e-02 -6.7808574576091437e-03 0.0000000000000000e+00  1.8999589758686247e-01 -2.0636156176943032e-02 0.0000000000000000e+00  1.3661892618552979e-01 2.2729025798231507e-03 0.0000000000000000e+00  2.9165811094388766e-01 7.5865207851535887e-02 0.0000000000000000e+00  3.3730282327925770e-01 5.3560882812343343e-02 0.0000000000000000e+00  3.1541339975874266e-01 2.6269749556615311e-02 0.0000000000000000e+00  1.4736462179319385e-01 -3.8262350255374197e-05 0.0000000000000000e+00  2.2720775658587022e-01 1.1420386627326978e-02 0.0000000000000000e+00  2.9834913664929119e-01 -7.9056658174829209e-02 0.0000000000000000e+00  7.7236792424218229e-02 3.1661787208966947e-03 0.0000000000000000e+00  2.2768400009067166e-01 -1.0845553239289070e-04 0.0000000000000000e+00  2.2822311252885255e-01 -1.4875929777998241e-04 0.0000000000000000e+00  2.1766483757428404e-01 -1.4629489475837901e-04 0.0000000000000000e+00  2.2507286443123906e-01 -1.4034666928279111e-05 0.0000000000000000e+00  1.3063401699114757e-01 1.1718424471911854e-06 0.0000000000000000e+00  1.3934453535729588e-01 -5.4344887020343421e-05 0.0000000000000000e+00  1.9843855770750074e-01 1.9024818400725479e-01 0.0000000000000000e+00  4.0928411184315054e-02 4.5618675503457766e-02 0.0000000000000000e+00  1.0138062148444638e-01 -1.2597551686996878e-02 0.0000000000000000e+00  2.1981204324164319e-01 -4.8429126297525283e-03 0.0000000000000000e+00  1.8930951239471774e-01 8.1883845359665489e-03 0.0000000000000000e+00  2.2312894270780745e-01 5.4388654789060305e-03 0.0000000000000000e+00  2.8364095456803912e-01 -5.7484654809285475e-02 0.0000000000000000e+00  2.1507475718566574e-01 -1.4140888402685613e-04 0.0000000000000000e+00  1.1177987664725425e-01 1.1042303477126036e-02 0.0000000000000000e+00  2.3547247416884948e-01 1.7059118377987650e-02 0.0000000000000000e+00  3.3634233807148989e-01 -8.5162002770362302e-02 0.0000000000000000e+00  1.3489291192380423e-01 4.0890468944905050e-04 0.0000000000000000e+00  2.1788099527984001e-01 1.3091406104242321e-03 0.0000000000000000e+00  1.3258242076826762e-01 -2.6080643789720587e-05 0.0000000000000000e+00  1.6300750780671416e-01 7.6806613742337521e-02 0.0000000000000000e+00  2.4643513769388883e-01 1.3024805836682235e-01 0.0000000000000000e+00  2.1980410333359426e-01 3.1047184946253307e-02 0.0000000000000000e+00  1.3190540112825258e-01 -1.4337063367616872e-02 0.0000000000000000e+00  2.9188806284978075e-01 -4.8919924196139941e-02 0.0000000000000000e+00  2.2121731231563505e-01 -4.5226943711415085e-02 0.0000000000000000e+00  3.9251415832499625e-01 1.8007863686076847e-02 0.0000000000000000e+00  2.1396845365441133e-01 1.8541561589753033e-02 0.0000000000000000e+00  1.8317995581146182e-01 -7.3945868121382777e-04 0.0000000000000000e+00  3.4025881582067080e-01 1.8312825013078718e-01 0.0000000000000000e+00  2.7769306310299796e-01 3.6301773028839031e-02 0.0000000000000000e+00  2.3155765975670328e-01 7.2424149339342644e-02 0.0000000000000000e+00  2.2826546320241989e-01 1.0129856063539578e-03 0.0000000000000000e+00  2.0033035735216867e-01 -8.2899245848615724e-05 0.0000000000000000e+00  2.1937343018559236e-01 -5.3788787813674913e-05 0.0000000000000000e+00  2.9755399793469417e-01 -3.7189165039189176e-02 0.0000000000000000e+00  1.2558699118605610e-01 2.5536564106319548e-02 0.0000000000000000e+00  1.0731260386030814e-01 6.2241501053109331e-03 0.0000000000000000e+00  2.1015290959164215e-01 2.1512361718831523e-02 0.0000000000000000e+00  1.5848235059729243e-01 4.9466993251114866e-02 0.0000000000000000e+00  2.3619022273238277e-01 7.2429401675005081e-03 0.0000000000000000e+00  1.5366526186342444e-01 2.0653777063802201e-03 0.0000000000000000e+00  5.5879702196252427e-02 -3.1860536030912441e-02 0.0000000000000000e+00  4.6267634098531252e-01 4.2526463375029876e-02 0.0000000000000000e+00  1.1751010161930890e-01 -2.1128109115379771e-02 0.0000000000000000e+00  3.4744654035129691e-01 -2.8891282700958660e-02 0.0000000000000000e+00  2.0499717341063767e-01 -6.7909069842182591e-05 0.0000000000000000e+00  2.3720224319935976e-01 -1.2262530978871953e-02 0.0000000000000000e+00  1.9458309405086593e-01 1.3226647099187644e-02 0.0000000000000000e+00  2.1388874183647580e-01 2.4417460024601483e-02 0.0000000000000000e+00  1.9474092090887207e-01 -6.8399847544062739e-02 0.0000000000000000e+00  1.2731684332743047e-02 7.4621228694675508e-03 0.0000000000000000e+00  1.0460143637249275e-01 6.5003145956773231e-04 0.0000000000000000e+00  3.0736137958669307e-02 -1.8592930223002169e-02 0.0000000000000000e+00  9.5983250384123017e-02 1.7681132390281625e-02 0.0000000000000000e+00  6.2749522666004393e-02 1.7613489307038162e-02 0.0000000000000000e+00  1.9923808967933040e-01 -7.2730949982188918e-05 0.0000000000000000e+00  1.1114367215223941e-01 -5.2754639713201028e-05 0.0000000000000000e+00  4.0282353124536474e-01 -4.0524683111787911e-02 0.0000000000000000e+00  2.2020126475025104e-01 2.8967526556743658e-03 0.0000000000000000e+00  2.0704177431793255e-01 5.3355043833993442e-05 0.0000000000000000e+00  3.5785430559359899e-02 8.3580578094568863e-08 0.0000000000000000e+00  7.6917956857244257e-02 1.6415993688664723e-02 0.0000000000000000e+00  1.5903166929527052e-01 4.2016067914430057e-02 0.0000000000000000e+00  2.2324741065333373e-01 -3.8293430785442732e-05 0.0000000000000000e+00  2.0752357527741697e-01 5.8589706441783624e-03 0.0000000000000000e+00  1.5608478657309954e-01 -9.5314822921831258e-03 0.0000000000000000e+00  3.1801231018331605e-01 -4.0153347041543927e-02 0.0000000000000000e+00  3.8096253178299533e-01 3.5623274894105668e-02 0.0000000000000000e+00  1.3442240202667058e-01 4.1284638602417005e-03 0.0000000000000000e+00  1.0179639877405162e-01 5.8884848945638623e-04 0.0000000000000000e+00  1.1446462584941597e-01 -2.4847168506695926e-05 0.0000000000000000e+00  -7.5392011164971693e-03 1.3372200965830951e-02 0.0000000000000000e+00  3.3356379169778322e-01 3.3977088176905282e-08 0.0000000000000000e+00  7.2411155596347226e-02 6.2529395245402861e-03 0.0000000000000000e+00  3.9131187451970550e-01 3.2051754174213009e-03 0.0000000000000000e+00  1.1881622588603767e-01 -6.5629730282700460e-05 0.0000000000000000e+00  2.9795734436365678e-01 -5.7788141773805472e-02 0.0000000000000000e+00  1.1852650470831495e-01 -2.4806149593813634e-08 0.0000000000000000e+00  2.1948197009455495e-01 -5.0470515372330285e-05 0.0000000000000000e+00  1.1431107260408745e-01 -9.0361933043086353e-06 0.0000000000000000e+00  2.1733314989424302e-01 -2.3856694790092625e-08 0.0000000000000000e+00  1.1475266694463943e-01 6.8290695761150189e-05 0.0000000000000000e+00  1.7615532065310488e-01 2.2500096127368186e-02 0.0000000000000000e+00  2.2468601759509360e-01 -8.7261694566099449e-05 0.0000000000000000e+00  7.1280017882379629e-02 -2.1915751093397374e-02 0.0000000000000000e+00  9.4734796895565798e-02 -6.6216029985381626e-03 0.0000000000000000e+00  2.0457445893046738e-01 -3.2982211783545025e-02 0.0000000000000000e+00  -2.0851549362459563e-02 2.7826632880228221e-03 0.0000000000000000e+00  3.1180036521308729e-01 -1.6542383923245103e-02 0.0000000000000000e+00  2.8478034173046479e-01 -1.7069075574504433e-02 0.0000000000000000e+00  4.0866006831060281e-01 -4.6129963703790411e-02 0.0000000000000000e+00  1.1132582405612564e-01 2.5124731485772472e-03 0.0000000000000000e+00  2.7536819505706556e-01 -3.1524720574682974e-02 0.0000000000000000e+00  2.7922718319222894e-01 -1.6560125668187490e-02 0.0000000000000000e+00  1.9312588115944343e-01 -1.1405845496780499e-04 0.0000000000000000e+00  2.3216654365918321e-01 -8.4903460596661470e-02 0.0000000000000000e+00  8.6676097819993386e-02 -2.9085782133363236e-05 0.0000000000000000e+00  1.8326342695892486e-01 -9.1883648474512785e-03 0.0000000000000000e+00  3.10016