<?xml version="1.0"?>
<VTKFile type="UnstructuredGrid"  version="0.1"  >
<UnstructuredGrid>
<Piece  NumberOfPoints="1404" NumberOfCells="2604">
<Points>
<DataArray  type="Float64"  NumberOfComponents="3"  format="ascii">0 0.41 0  0 0 0  2.2 0 0  2.2 0.41 0  0.2353553390593274 0.2353553390593274 0  0.25 0.2 0  0.2353553390593274 0.1646446609406726 0  0.2 0.15 0  0.1646446609406726 0.1646446609406726 0  0.15 0.2 0  0.1646446609406726 0.2353553390593274 0  0.2 0.25 0  0.6923879532511287 0.188268343236509 0  0.7 0.15 0  0.6923879532511287 0.1117316567634909 0  0.6707106781186547 0.07928932188134523 0  0.6382683432365089 0.05761204674887133 0  0.6 0.04999999999999999 0  0.5617316567634909 0.05761204674887134 0  0.5292893218813453 0.07928932188134524 0  0.5076120467488713 0.111731656763491 0  0.5 0.15 0  0.5076120467488713 0.188268343236509 0  0.5292893218813453 0.2207106781186547 0  0.561731656763491 0.2423879532511287 0  0.6 0.25 0  0.6382683432365089 0.2423879532511287 0  0.6707106781186547 0.2207106781186547 0  1.1 0 0  0 0.205 0  1.1 0.41 0  0.55 0 0  0.55 0.41 0  0.275 0 0  0.8250000000000001 0 0  0.275 0.41 0  0.8250000000000001 0.41 0  0.6875 0 0  0.61875 0 0  1.65 0.41 0  1.65 0 0  1.375 0 0  1.375 0.41 0  1.925 0 0  1.925 0.41 0  1.5125 0.205 0  1.7875 0.205 0  0.9625000000000001 0.205 0  1.2375 0.205 0  2.2 0.205 0  1.99375 0.2152743902439024 0  0.4125 0.41 0  2.0625 0 0  2.0625 0.41 0  2.2 0.3075 0  1.7875 0.41 0  1.375 0.1486128048780488 0  1.5125 0 0  1.7875 0 0  1.5125 0.41 0  0.9625000000000001 0.41 0  0.4125 0 0  0.1375 0 0  0.1375 0.41 0  0.6875 0.41 0  0.9625000000000001 0 0  1.2375 0 0  1.1 0.1486128048780488 0  1.2375 0.41 0  1.65 0.1486128048780487 0  0.823495464168302 0.2603780552348366 0  0.3738707794507017 0.2720196349488618 0  0.3662291281331582 0.1311456406657909 0  1.676715909090909 0.2793064024390244 0  1.126715909090909 0.2793064024390244 0  1.348284090909091 0.2793064024390244 0  0.8287581077665108 0.1302150898054257 0  1.894702181800738 0.1282910975492754 0  2.092797818199262 0.1282910975492754 0  1.85625 0.3075 0  0 0.3075 0  0 0.1025 0  2.099172119769978 0.25625 0  0.4752414543992246 0.3180372603390748 0  1.99375 0.08395950269330846 0  1.459960956013612 0.3075 0  1.569025960719943 0.2986889805672169 0  1.03125 0.3278689922742084 0  1.959375 0.3126371951219512 0  1.749222215368287 0.1025 0  1.275777784631713 0.1025 0  0.9228016959331474 0.3075 0  1.000777784631713 0.1025 0  2.2 0.1025 0  1.225938124459196 0.3075 0  1.550777784631713 0.1025 0  1.44375 0.07430640243902442 0  1.16875 0.07430640243902439 0  0.7562500000000001 0.3358727844323386 0  0.89375 0 0  1.899250267340833 0.2229966846119207 0  0.61875 0.41 0  1.766482954545455 0.2934032012195123 0  1.046078563095834 0.2389031808701145 0  1.421109702350723 0.2261157654379721 0  0.07567171807980319 0.25625 0  0.2511897295290552 0.3235829392832554 0  0.07655002503762308 0.1488653460959645 0  0.1377245246847496 0.3206030474919778 0  0.6694099692696568 0.3242771941727899 0  0.9168971191497528 0.1295727156104653 0  0.7562500000000001 0 0  2.118919042110979 0.3422084711244843 0  2.13125 0 0  0.06875000000000001 0 0  1.30625 0.41 0  1.597888256393107 0.2173787389261347 0  0.34375 0.41 0  0.2493272016354703 0.08091360081773515 0  0.5588896233436766 0.3264056208677571 0  1.829299675393195 0.07400700849299596 0  0.1334079128307869 0.08523463035786674 0  1.71875 0.41 0  0.06875000000000001 0.41 0  1.16875 0.41 0  2.038220665644273 0.332420740103091 0  0.8810647413215221 0.2027360103977071 0  0.34375 0 0  0.7453891198966415 0.2471459041008237 0  0.42112093004955 0.1988123139090554 0  0.8314023090855964 0.3351170841770613 0  0.89375 0.41 0  0.7906250000000001 0.06615386481594063 0  1.452769549894695 0.1548122580621249 0  1.369219062229598 0.07430640243902442 0  1.30625 0 0  1.07420695807087 0.07430640243902439 0  1.720943423819132 0.1714577452753128 0  1.157188124459196 0.205 0  1.304056576180868 0.1714577452753128 0  1.67579304192913 0.07430640243902437 0  1.209670467133757 0.136210026696477 0  0.4312800784902823 0.08036147352247747 0  0.8723959680194693 0.07066860609690805 0  1.025335513626278 0.1700681449722324 0  0.7945632284247136 0.1940204203251442 0  0.378125 0.3452261501101892 0  0.3307109909790086 0.2037165635083759 0  0.3009701032039409 0.2702970083403109 0  0.20625 0.41 0  1.58125 0 0  0.4812500000000001 0 0  0.9838963872396855 0.2722244191167347 0  0.06772484939107212 0.3260067317374387 0  0.20625 0 0  1.58125 0.41 0  1.631724228912893 0.3381867502687533 0  1.825608881788174 0.14499488549201 0  1.85625 0 0  1.44375 0 0  1.44375 0.41 0  1.85625 0.41 0  2.13125 0.41 0  0.7562500000000001 0.41 0  0.4812500000000001 0.41 0  1.16875 0 0  1.03125 0.41 0  1.03125 0 0  1.71875 0 0  1.99375 0 0  1.99375 0.41 0  0.9408708167433545 0.0651989315768642 0  1.340625 0.3489494290853124 0  1.134375 0.3489494290853123 0  1.700180620188976 0.3438659752031281 0  0.29668452290037 0.1318471691375986 0  0.3175441051360096 0.06496934809856265 0  0.06509151636162461 0.08140814015999148 0  2.135782184673599 0.07126652247502523 0  1.668441847249787 0.2129203728327609 0  1.295782514339747 0.2378437748815763 0  1.409375 0.3520314716057996 0  2.129248544730567 0.1906135162504124 0  2.060771381434487 0.1989445750470348 0  2.013252586573865 0.1496169464686054 0  1.942766402200229 0.1734448904596831 0  1.895522487186454 0.06076163953489683 0  2.069553871656643 0.06605731020975725 0  0.4670911801404742 0.2498408582391372 0  0.7622743084658112 0.1264100838268133 0  1.274680914880868 0.3520219391081363 0  0.3148669572599245 0.3331753056385887 0  1.614713220494657 0.09473434380863296 0  1.72990325744076 0.2380068107952482 0  1.356580098625191 0.2120393231351682 0  2.034370752044885 0.2668681600792073 0  1.51768709249349 0.3426260931494756 0  1.561883724969884 0.1650446847858835 0  1.197344062229598 0.2523725417393646 0  1.804085235518364 0.3468178408964637 0  1.817887819205233 0.2589243285818559 0  1.905897727272727 0.3485060975609756 0  0.7296439733931823 0.06337466644369745 0  0.4250935971865949 0.1394919578475796 0  0.3773030136511669 0.05130372097998036 0  1.192836486056382 0.3562350748565544 0  1.1029124365364 0.226143510831178 0  1.28257088594801 0.2944411014911587 0  0.1905185804731426 0.06029880676029167 0  1.474860187679412 0.2504218616229368 0  1.406767003493824 0.2829282258560709 0  0.5209826960981064 0.2830664557824064 0  0.5131119502780163 0.3617405848213254 0  0.1948220106098172 0.3081993407644811 0  1.845656689180403 0.1998310418452388 0  2.144958525570388 0.2909790873294231 0  2.2 0.15375 0  0.8833025251326762 0.2625402923007629 0  0.171875 0.3653875762360952 0  1.57794966442982 0.3540357145964566 0  0.446875 0.366068291212731 0  0.4272051715206439 0.2891929346190664 0  1.508991196088596 0.1421783375065625 0  1.50436820029908 0.06143401634903343 0  1.223857000523521 0.08235548624535324 0  0.6137904613287555 0.3066826366281556 0  1.153316824384777 0.1289850171317838 0  0.9751573703656133 0.327632618473408 0  2.148922302309752 0.1258841779285271 0  0.9281250000000001 0.3643758685795699 0  1.621993280276081 0.2841214267927899 0  1.550118654119087 0.2461998729100966 0  1.327182649291491 0.1216967252533594 0  0.9939955742738924 0.04663549843168518 0  1.753125 0.04556020050186112 0  1.271875 0.04556020050186116 0  0.9734326767716519 0.1506854560854393 0  0.103125 0.3675775577080512 0  1.94956388244759 0.1180512551534177 0  1.949997712993411 0.04965831614304109 0  0.717433898748555 0.295596016333797 0  1.771961817615021 0.1530278789497521 0  1.909246823951428 0.2812757146784527 0  0 0.35875 0  1.050632804931928 0.1226269704412814 0  0.05695108326502596 0.2024009637347154 0  1.948575539857022 0.2445328248721197 0  1.697271520964565 0.1233917627620729 0  1.065625 0.3689344961371042 0  1.085849084308977 0.3170853572226867 0  0.1015495998772944 0.04226029099983852 0  1.577403511714593 0.05463601888079143 0  1.751571320346033 0.3651102912045228 0  2.2 0.35875 0  0.7441773632462837 0.1786786606458751 0  0 0.05125 0  1.466879772203159 0.3611261772912453 0  0.6282230348858767 0.3577675483994025 0  1.990280163552011 0.3564754268533217 0  1.17471064520912 0.2990917256188288 0  0 0.25625 0  2.2 0.25625 0  2.2 0.05125 0  0 0.15375 0  1.853978576207987 0.35875 0  1.515638456102889 0.2882700110184686 0  2.150453692751374 0.2387066338105111 0  1.323782677156475 0.04897634338873398 0  1.409375 0.03715320121951221 0  1.406484531114799 0.1087852750766809 0  1.134375 0.03715320121951219 0  0.721875 0.3729363922161693 0  0.7941695928236929 0.3696489254637395 0  0.7934827162619036 0.3013409431456604 0  1.627401732573545 0.04552157221025036 0  0.9352049974617431 0.2507047965699472 0  0.8763260682738339 0.3611103317460093 0  2.045405893604797 0.1105340662939892 0  1.255408269734577 0.1577307500159216 0  2.028125 0.03707597992059326 0  1.003030137506755 0.3689344961371042 0  1.248258025468107 0.2565907092181813 0  1.203125 0.03661323374043041 0  0.4800125512335631 0.0549472816999725 0  2.072662025974815 0.2975086504196739 0  0.240625 0.3729825336867542 0  1.113252391110535 0.10238286244357 0  1.071052763974265 0.1885202618768825 0  0.8738809401657862 0.3106483608284829 0  0.6786819423003397 0.2677558482644021 0  1.887722846421017 0.1760882698830035 0  1.472640588990488 0.1118278026240017 0  0.5843750000000001 0.41 0  1.865937103925594 0.2604137786483804 0  1.463913572748262 0.2030442564990043 0  1.376426316059077 0.3186741374914345 0  0.1038643885363755 0.2162701735320032 0  0.1769473813227781 0.1070849728467114 0  0.458787839809176 0.171541653775316 0  0.240625 0 0  0.04179569703428024 0.2877217852556549 0  0.1258346557601885 0.2699740073054968 0  1.722140693354707 0.282908100935778 0  0.41206179117512 0.2448172567039922 0  0.3702471778075604 0.2265217604228704 0  0.3714881805374215 0.1786967818665642 0  1.77397096061971 0.2481483237422926 0  2.105123889160691 0.03743885948498647 0  1.001138337938679 0.229719337663998 0  1.051242910646791 0.2854826559431138 0  1.395420985247586 0.18
[...]
<PointData  Vectors="f_37"> 
<DataArray  type="Float64"  Name="f_37"  NumberOfComponents="3" format="ascii">2.5153167201303860e-07 4.7434694001566438e-08 0.0000000000000000e+00  -4.4462697849178963e-06 -3.6220136512589120e-07 0.0000000000000000e+00  -6.5528595454928686e-07 4.9458200208533874e-10 0.0000000000000000e+00  -8.5702563878731485e-07 1.0716838327532790e-10 0.0000000000000000e+00  2.9799573377447667e-08 2.4136009340372630e-07 0.0000000000000000e+00  1.9017109622437918e-07 -1.2574571063256458e-07 0.0000000000000000e+00  1.3842402245185915e-07 1.5519648038852242e-07 0.0000000000000000e+00  -9.3626967018507980e-07 -8.6103537388505124e-08 0.0000000000000000e+00  -7.3844265149350842e-07 -1.5413855795806929e-07 0.0000000000000000e+00  9.7220236367992248e-08 -5.6704397357254492e-07 0.0000000000000000e+00  -9.8308423423175959e-07 -5.1395541942472628e-07 0.0000000000000000e+00  -1.0346314653109652e-06 -2.1692211313734462e-07 0.0000000000000000e+00  2.9129126583382039e-07 5.0991767928264923e-07 0.0000000000000000e+00  -3.3188360806000926e-07 -1.0994782286988618e-07 0.0000000000000000e+00  -2.9678637163567559e-07 1.0703221816103295e-07 0.0000000000000000e+00  -1.1021771360135297e-06 -4.1491291351950630e-07 0.0000000000000000e+00  2.0728312018250464e-06 3.2675331086060091e-07 0.0000000000000000e+00  3.4811712471749301e-01 9.6800531366434489e-02 0.0000000000000000e+00  1.6237856376538822e-06 1.1985567023543869e-07 0.0000000000000000e+00  -1.0157806775774475e-06 3.3507582190427256e-07 0.0000000000000000e+00  -1.4001290010332253e-06 4.8096641495384872e-09 0.0000000000000000e+00  -6.5995065799931815e-08 -3.6655219329809638e-07 0.0000000000000000e+00  1.4533141004536406e-07 -1.5463664593049771e-07 0.0000000000000000e+00  -9.6701806266463340e-07 -1.7840085675771984e-06 0.0000000000000000e+00  -3.2740858604544968e-06 -1.1927535062350114e-06 0.0000000000000000e+00  -4.2706821113965085e-06 -1.2069873001158584e-07 0.0000000000000000e+00  -4.2772205928290492e-06 -6.1922644176095791e-08 0.0000000000000000e+00  -4.5808313931741055e-07 2.8618857440452029e-07 0.0000000000000000e+00  3.0552795287113938e-06 -7.3454895255864738e-07 0.0000000000000000e+00  1.6583343003774126e-01 -4.5011612358558307e-07 0.0000000000000000e+00  -8.9982687133259067e-07 3.4688410491880825e-08 0.0000000000000000e+00  2.8904003083299064e-06 2.7485131328746287e-07 0.0000000000000000e+00  -4.6975339914067605e-07 -9.5611796750658277e-08 0.0000000000000000e+00  4.2853252993487000e-07 5.1802367508680168e-08 0.0000000000000000e+00  -4.3088309033577147e-07 4.2391986960651510e-09 0.0000000000000000e+00  -1.0381087654018540e-06 -1.7890429738409893e-08 0.0000000000000000e+00  -1.4945480077730969e-06 3.1049782452941174e-08 0.0000000000000000e+00  -2.5666661043436546e-06 -5.0007300973371139e-07 0.0000000000000000e+00  -9.0841341234944320e-06 -1.1375835033914092e-06 0.0000000000000000e+00  -1.0380631373147509e-06 -1.9974743714842474e-08 0.0000000000000000e+00  -1.1172879839004956e-06 -2.8004374260819564e-08 0.0000000000000000e+00  -1.5873034530762556e-06 2.9655902705917972e-07 0.0000000000000000e+00  -9.4952028632738594e-07 -1.9634708141155945e-07 0.0000000000000000e+00  -4.9604431224914364e-07 -5.0976840627434951e-10 0.0000000000000000e+00  -6.7192523662272696e-08 1.9061085042456411e-11 0.0000000000000000e+00  2.2439333662429478e-01 1.1235767955741782e-02 0.0000000000000000e+00  2.2354591333012286e-01 7.2055356879839236e-04 0.0000000000000000e+00  1.8093908303784154e-01 -5.1933221805002512e-03 0.0000000000000000e+00  2.9643649589896509e-01 -8.5198759098748453e-02 0.0000000000000000e+00  2.2357542895132138e-01 -1.1763581303775243e-05 0.0000000000000000e+00  2.2331538812789772e-01 1.7810797033728638e-06 0.0000000000000000e+00  3.1800485628882950e-07 1.1410764418702555e-08 0.0000000000000000e+00  1.6854405670183114e-07 2.8344948674842605e-10 0.0000000000000000e+00  -5.5630335771712358e-07 7.5201889098044588e-10 0.0000000000000000e+00  1.8742067612905891e-01 -1.5530079214523052e-05 0.0000000000000000e+00  -8.0478307663164160e-07 -4.3173306950207444e-09 0.0000000000000000e+00  2.3184915992611513e-01 -1.0453711624409463e-02 0.0000000000000000e+00  -9.5726379072157325e-07 -5.4744484258386361e-08 0.0000000000000000e+00  -1.0089652663408708e-06 -4.4685521600639125e-09 0.0000000000000000e+00  -1.1992226280810289e-06 -8.8432251685162441e-08 0.0000000000000000e+00  -5.5581121641595614e-07 -1.5321349533204690e-07 0.0000000000000000e+00  -4.5059057660122048e-07 -8.4380435804929025e-08 0.0000000000000000e+00  -8.1596268453446821e-07 -6.4168534706260665e-08 0.0000000000000000e+00  -3.8634381378597719e-07 -5.5292924128090598e-08 0.0000000000000000e+00  -2.3647037003473363e-06 1.0083962068104768e-07 0.0000000000000000e+00  7.9632094141300125e-07 -2.3638504671196086e-07 0.0000000000000000e+00  -2.6063982018506928e-06 3.0619543852397013e-07 0.0000000000000000e+00  1.5247649460789267e-01 -4.7654568088394793e-02 0.0000000000000000e+00  1.8365479327946422e-06 4.4789487671953032e-07 0.0000000000000000e+00  2.1655985658857635e-01 3.1017378371913876e-03 0.0000000000000000e+00  2.6243734849623246e-01 -3.5484187459565227e-02 0.0000000000000000e+00  1.0759950539153459e-01 4.9254570806202182e-03 0.0000000000000000e+00  3.0471782103962763e-01 1.0668055632751799e-01 0.0000000000000000e+00  2.0587275744076305e-01 1.9649664823475697e-03 0.0000000000000000e+00  3.2921343087506189e-01 -8.4045244195126156e-02 0.0000000000000000e+00  1.9485256901900944e-01 1.2517945918499380e-02 0.0000000000000000e+00  7.1343389365459614e-02 5.5117860843466697e-02 0.0000000000000000e+00  2.0602081921064710e-01 8.5130926716725717e-05 0.0000000000000000e+00  2.0594802304371315e-01 -1.3860168945084269e-05 0.0000000000000000e+00  1.8732186019873254e-01 1.0633914248167236e-04 0.0000000000000000e+00  7.5234906326095918e-02 5.0041873827719942e-08 0.0000000000000000e+00  2.7319255458699382e-01 -1.1955076355825865e-09 0.0000000000000000e+00  2.1668663683439854e-01 -1.9950770213680914e-05 0.0000000000000000e+00  2.4094712207491500e-01 7.1813949815096645e-02 0.0000000000000000e+00  1.6761443116945021e-01 -9.8437400369495030e-06 0.0000000000000000e+00  1.7230282911308772e-01 1.2648642991715883e-02 0.0000000000000000e+00  1.8971543395291279e-01 5.1462352746224384e-03 0.0000000000000000e+00  3.0193629293142338e-01 -4.4059800677888193e-02 0.0000000000000000e+00  1.8255657098310324e-01 -1.1921641086814882e-05 0.0000000000000000e+00  1.8794717969599653e-01 6.3150331062071193e-04 0.0000000000000000e+00  1.6623726276254766e-01 -5.0384256126576585e-02 0.0000000000000000e+00  3.9683183469630995e-01 -4.4311677195890249e-02 0.0000000000000000e+00  3.7286334999048862e-02 2.0285914169811126e-02 0.0000000000000000e+00  1.8733441428201988e-01 -2.9538367545010675e-06 0.0000000000000000e+00  1.8852505303883837e-01 -2.8549263515807090e-02 0.0000000000000000e+00  1.9352925643609187e-01 5.0648299916041398e-03 0.0000000000000000e+00  1.6863156508622337e-01 3.2086248760308748e-03 0.0000000000000000e+00  4.8660103176995900e-02 -3.7475497826109344e-02 0.0000000000000000e+00  4.2706016686517545e-01 -3.4835481921164285e-02 0.0000000000000000e+00  -2.5337484990686694e-07 3.0009691758786249e-08 0.0000000000000000e+00  2.2278548369043913e-01 1.2232657616790152e-04 0.0000000000000000e+00  -9.3590685877137989e-07 1.3814810889764880e-08 0.0000000000000000e+00  1.9822202523838986e-01 5.7002302026402485e-04 0.0000000000000000e+00  3.2607888972516913e-01 -6.9211211553315596e-02 0.0000000000000000e+00  2.2705638897898078e-01 1.5645873399879218e-02 0.0000000000000000e+00  1.2574628813792604e-01 7.1293676947781229e-02 0.0000000000000000e+00  2.3142306586517603e-01 1.4684423039209124e-02 0.0000000000000000e+00  2.0876642667449588e-01 2.4512261136689282e-02 0.0000000000000000e+00  1.4767058658373355e-01 7.4160252888298986e-02 0.0000000000000000e+00  4.5713915689623386e-01 -1.2808920255168390e-02 0.0000000000000000e+00  7.0970831785801894e-02 3.5437452769944110e-02 0.0000000000000000e+00  -2.3476360515283616e-07 -8.1666540683276807e-08 0.0000000000000000e+00  1.4552160830311134e-01 -1.1975606130202595e-05 0.0000000000000000e+00  -1.6409764007964005e-06 -8.6547778092067232e-10 0.0000000000000000e+00  -1.2668304840751205e-06 7.3269501369287785e-09 0.0000000000000000e+00  1.2522147662301099e-06 8.2737217470497488e-08 0.0000000000000000e+00  2.2240022836029805e-01 5.8632325552321072e-03 0.0000000000000000e+00  -1.8754283505153679e-06 -1.9352020288877255e-08 0.0000000000000000e+00  4.0355621615836484e-01 4.2649725265699531e-02 0.0000000000000000e+00  3.7376998022077818e-01 7.7048858947483326e-02 0.0000000000000000e+00  1.5467588374942262e-01 1.0153355437205718e-04 0.0000000000000000e+00  3.4353537755112662e-01 1.3287782580092831e-02 0.0000000000000000e+00  -1.0249224232219591e-06 -1.2543149138186559e-08 0.0000000000000000e+00  -7.4388475204908341e-08 -3.4770297368615134e-09 0.0000000000000000e+00  4.4081098737663650e-07 2.6444211475660852e-07 0.0000000000000000e+00  1.5954751801863151e-01 -1.9379632915507064e-05 0.0000000000000000e+00  1.1161423411690985e-01 9.4961013421428903e-03 0.0000000000000000e+00  -3.1947215534901068e-07 -8.8487986193341577e-08 0.0000000000000000e+00  1.4331109589557725e-01 -2.4971708874367390e-02 0.0000000000000000e+00  1.5551455665812777e-01 1.4871386697695538e-01 0.0000000000000000e+00  3.9785571718879392e-01 -3.4434870148632064e-02 0.0000000000000000e+00  1.7303053096255792e-06 -1.7478892490720085e-07 0.0000000000000000e+00  1.0972371113561573e-01 4.9662444275806218e-02 0.0000000000000000e+00  2.2633364439060499e-01 8.0767993065553201e-03 0.0000000000000000e+00  1.6574579209302923e-01 -6.7984925625266647e-03 0.0000000000000000e+00  -2.4961128763193736e-06 4.5661095513313344e-07 0.0000000000000000e+00  4.3457031950340777e-03 -3.4115132955251856e-03 0.0000000000000000e+00  2.2121553692374668e-01 1.5632651410823640e-03 0.0000000000000000e+00  3.0552326883268155e-01 -1.0754685646929837e-01 0.0000000000000000e+00  2.5780829515429771e-01 -4.7035294165174872e-02 0.0000000000000000e+00  1.5645905965221676e-01 1.0155696861495690e-03 0.0000000000000000e+00  1.8981435489631002e-01 -8.6102067667480811e-02 0.0000000000000000e+00  2.3795624687696576e-01 2.4595756297446949e-02 0.0000000000000000e+00  5.1538409797542317e-02 2.2031352945261887e-02 0.0000000000000000e+00  1.5543177178266671e-01 -8.1259052281042604e-03 0.0000000000000000e+00  2.8010232075171074e-02 1.4451976788811197e-02 0.0000000000000000e+00  2.1164777987559982e-01 7.3807795709746153e-03 0.0000000000000000e+00  3.5445421333882260e-02 1.6239934780850930e-02 0.0000000000000000e+00  1.0206808756757151e-01 -1.9949706215391657e-02 0.0000000000000000e+00  -9.6103002367372043e-07 -1.2369936139363602e-07 0.0000000000000000e+00  -3.1087574239832031e-07 -3.8156724661132853e-08 0.0000000000000000e+00  -7.5028270776319139e-07 3.8229149375309719e-07 0.0000000000000000e+00  3.6656312355550674e-01 -5.5953787116548415e-02 0.0000000000000000e+00  7.8053061957108302e-02 3.1252130646079478e-02 0.0000000000000000e+00  -2.2122211206901643e-06 -9.9967994757764572e-08 0.0000000000000000e+00  -9.8845202769126960e-07 -3.9234062861115557e-08 0.0000000000000000e+00  1.4907869965741935e-01 1.4759578859686524e-03 0.0000000000000000e+00  2.1383723413932854e-01 3.3544211799088050e-04 0.0000000000000000e+00  -7.1383040591958346e-07 -1.0431259712811693e-09 0.0000000000000000e+00  -6.6057679673533013e-07 -3.0545491530251741e-09 0.0000000000000000e+00  -1.7350925593408322e-06 -1.8583186327210025e-07 0.0000000000000000e+00  -1.4273452874648381e-07 -8.4012422473605286e-10 0.0000000000000000e+00  -9.8459446295173034e-08 1.1908629312428117e-10 0.0000000000000000e+00  3.8904087030130833e-07 -9.9640736887585570e-09 0.0000000000000000e+00  -2.1540093759898951e-06 -2.5858318849533375e-07 0.0000000000000000e+00  -1.5407860260159260e-07 -2.9225825529118168e-07 0.0000000000000000e+00  -3.8781816475412698e-07 -6.6734742599520085e-08 0.0000000000000000e+00  2.4495752706488955e-06 -5.5266694918912825e-07 0.0000000000000000e+00  1.5203850761641045e-07 -8.0783211093762405e-09 0.0000000000000000e+00  -9.0014711194897948e-07 5.2209848349748542e-10 0.0000000000000000e+00  -3.1020419416409377e-07 2.3319506767774125e-11 0.0000000000000000e+00  1.8088711838107323e-02 1.7005270792250372e-02 0.0000000000000000e+00  9.6073626373755827e-02 7.6301644148635030e-03 0.0000000000000000e+00  1.4778924293596651e-01 -2.0956356563777423e-02 0.0000000000000000e+00  1.4204942389236042e-01 5.7661181533473168e-04 0.0000000000000000e+00  2.9174626462329778e-01 7.6283121390842965e-02 0.0000000000000000e+00  3.3658532521507672e-01 5.3632270446185591e-02 0.0000000000000000e+00  3.1540191698273590e-01 2.6328390292280849e-02 0.0000000000000000e+00  1.5061651548803742e-01 -8.1425041300605726e-08 0.0000000000000000e+00  2.2311268210591945e-01 2.9304437998676023e-03 0.0000000000000000e+00  2.5930364800488359e-01 -2.7055116439371925e-02 0.0000000000000000e+00  1.0511519554131246e-01 7.9462437802185898e-03 0.0000000000000000e+00  2.2308150782186700e-01 -1.7904263017927726e-05 0.0000000000000000e+00  2.2347532604042139e-01 -2.1257272197290088e-05 0.0000000000000000e+00  2.1530657879948006e-01 -1.7220762043003428e-05 0.0000000000000000e+00  2.2113266756495639e-01 3.7216782150669187e-05 0.0000000000000000e+00  1.3425680899126685e-01 8.7619804215492231e-06 0.0000000000000000e+00  1.4275404694496538e-01 -2.7287081231611088e-06 0.0000000000000000e+00  1.9937565449872793e-01 1.8919894887125024e-01 0.0000000000000000e+00  4.4385998110255329e-02 5.1637579991726093e-02 0.0000000000000000e+00  8.6239677842765247e-02 -8.6799710808462742e-04 0.0000000000000000e+00  2.2006832952731473e-01 -5.2390388226649853e-03 0.0000000000000000e+00  1.8309640447842646e-01 2.7254057866826905e-03 0.0000000000000000e+00  2.2043665696598189e-01 1.3754945339687929e-03 0.0000000000000000e+00  2.4855835194002407e-01 -2.5100654879901757e-03 0.0000000000000000e+00  2.1304295975187718e-01 -1.5727601162106444e-05 0.0000000000000000e+00  1.3608450010941364e-01 4.4589153622576934e-03 0.0000000000000000e+00  2.2233070075176067e-01 7.2737600190906464e-03 0.0000000000000000e+00  3.0731433898242250e-01 -8.3744806549965148e-02 0.0000000000000000e+00  1.3816207840968070e-01 1.1428236427072223e-04 0.0000000000000000e+00  2.1563656410299092e-01 3.8491545359900807e-04 0.0000000000000000e+00  1.3556864883928929e-01 3.4135545423222688e-06 0.0000000000000000e+00  1.6233011122813321e-01 7.9380509271369359e-02 0.0000000000000000e+00  2.4632867140019404e-01 1.2973713390786215e-01 0.0000000000000000e+00  2.1899238126043058e-01 3.0933445825021208e-02 0.0000000000000000e+00  9.7658451591458695e-02 -1.1618346375733420e-02 0.0000000000000000e+00  3.2618295325573171e-01 -9.3964583650531563e-02 0.0000000000000000e+00  1.8718570718705296e-01 -9.2180614123649231e-03 0.0000000000000000e+00  3.9229267779411137e-01 1.8142396607529806e-02 0.0000000000000000e+00  2.1316626110134140e-01 1.5114242841934536e-02 0.0000000000000000e+00  1.8972274877758177e-01 1.8992145952011798e-02 0.0000000000000000e+00  3.4132285028627501e-01 1.8283693001015824e-01 0.0000000000000000e+00  2.7603596757178750e-01 3.6052952945560011e-02 0.0000000000000000e+00  2.3178407197008294e-01 7.2494474191699104e-02 0.0000000000000000e+00  2.2350480592400918e-01 3.1788489170627332e-04 0.0000000000000000e+00  2.0040084532294475e-01 -2.3253715698258862e-05 0.0000000000000000e+00  2.1664417553690987e-01 -5.5521789274584941e-06 0.0000000000000000e+00  3.0167403558151129e-01 -3.6017857369813083e-02 0.0000000000000000e+00  1.2578824721524698e-01 2.5590753752762985e-02 0.0000000000000000e+00  1.2195438369689894e-01 1.8422995549204279e-03 0.0000000000000000e+00  2.0899778539373018e-01 2.1377105833140789e-02 0.0000000000000000e+00  1.5977664348496687e-01 4.8706316892695889e-02 0.0000000000000000e+00  2.1911272842393964e-01 8.4847537234658509e-03 0.0000000000000000e+00  1.4471945594554339e-01 3.2231382521501783e-03 0.0000000000000000e+00  1.0218784886734691e-01 -4.8911386664904091e-02 0.0000000000000000e+00  4.6424544109628324e-01 4.3347399468235688e-02 0.0000000000000000e+00  1.3914907492887912e-01 -6.9156315071184360e-02 0.0000000000000000e+00  3.4327278590445159e-01 -4.0427743274084327e-02 0.0000000000000000e+00  2.0460252220877159e-01 -3.6483033442584392e-06 0.0000000000000000e+00  2.3350713167538845e-01 -1.5453276079659925e-02 0.0000000000000000e+00  2.0188353947122314e-01 3.4164039356497323e-03 0.0000000000000000e+00  2.1596473509444836e-01 8.5271158804380402e-03 0.0000000000000000e+00  2.0871973015617559e-01 -3.2813652927381823e-02 0.0000000000000000e+00  -8.9983267227498227e-03 1.0009906643592612e-02 0.0000000000000000e+00  1.0714924747919188e-01 1.7204200840680617e-04 0.0000000000000000e+00  8.5639118382707199e-02 -1.6382503672420088e-02 0.0000000000000000e+00  9.8927272078935369e-02 2.2769403347870712e-02 0.0000000000000000e+00  6.2797382556593687e-02 1.7678032360423861e-02 0.0000000000000000e+00  1.9963572334252094e-01 9.7032131131383443e-06 0.0000000000000000e+00  1.1463552941200653e-01 -9.1380702851222941e-06 0.0000000000000000e+00  4.0372124619062483e-01 -3.9354376000051622e-02 0.0000000000000000e+00  2.1676034200543715e-01 7.5903238604825682e-04 0.0000000000000000e+00  2.0620871524197523e-01 4.7033034051189103e-05 0.0000000000000000e+00  3.5785433337897417e-02 8.9811051628177113e-08 0.0000000000000000e+00  7.4115493716590264e-02 -2.2086528452501387e-03 0.0000000000000000e+00  1.5904050815081561e-01 4.2109184840590695e-02 0.0000000000000000e+00  2.1963812936560767e-01 3.4725209309204643e-05 0.0000000000000000e+00  2.0428759649035760e-01 1.5442142528357969e-03 0.0000000000000000e+00  1.3061324951803616e-01 -1.1614445195763528e-02 0.0000000000000000e+00  2.8534941764983746e-01 -5.3487060884586837e-02 0.0000000000000000e+00  3.8089242179765548e-01 3.5683629117475871e-02 0.0000000000000000e+00  1.2818345240060330e-01 1.7532289792419377e-03 0.0000000000000000e+00  1.0531611152381568e-01 1.5261855017876112e-04 0.0000000000000000e+00  1.1763915417678597e-01 -1.1719894534862686e-05 0.0000000000000000e+00  -5.5042111235227859e-03 1.3769896502094568e-02 0.0000000000000000e+00  3.3356380479834574e-01 1.8053819897258778e-08 0.0000000000000000e+00  9.9662769688287564e-02 4.3384966993475112e-03 0.0000000000000000e+00  3.8964059580881882e-01 3.5531713764110763e-03 0.0000000000000000e+00  1.2184873473396360e-01 -1.3098013698059304e-05 0.0000000000000000e+00  2.4654213634340674e-01 -5.4326392095146121e-02 0.0000000000000000e+00  1.1852650509529246e-01 -3.5605096933458628e-08 0.0000000000000000e+00  2.1668713715682264e-01 -1.8047343334033164e-06 0.0000000000000000e+00  1.1760106059104800e-01 5.6118836422747760e-06 0.0000000000000000e+00  2.1733315747768964e-01 -4.9464505890789330e-08 0.0000000000000000e+00  1.1769079696815472e-01 2.2596550963060391e-05 0.0000000000000000e+00  1.9411011599808381e-01 9.4544400944551882e-03 0.0000000000000000e+00  2.2078037855697472e-01 -1.1427755533998131e-05 0.0000000000000000e+00  1.1527761858757313e-01 -9.7954848973343424e-03 0.0000000000000000e+00  1.0257436644899813e-01 3.4356475978421079e-04 0.0000000000000000e+00  2.0531766506170099e-01 -1.3358849855927262e-03 0.0000000000000000e+00  -1.0060690291964243e-02 -8.1638789801621071e-03 0.0000000000000000e+00  3.1162035915551617e-01 -1.6105960515792498e-02 0.0000000000000000e+00  2.8604854810528479e-01 -1.6904909984876978e-02 0.0000000000000000e+00  4.0986725958960996e-01 -4.4591025821941944e-02 0.0000000000000000e+00  1.0900353255686009e-01 8.1944640281642024e-04 0.0000000000000000e+00  2.8896596655648715e-01 -3.4593541072116214e-02 0.0000000000000000e+00  2.8006837765484832e-01 -1.8237985070866179e-02 0.0000000000000000e+00  1.9412538521640987e-01 -1.2326425984652490e-05 0.0000000000000000e+00  2.4460032221706751e-01 -7.9126471165889334e-02 0.0000000000000000e+00  8.9620370441509736e-02 -1.6515993069565444e-06 0.0000000000000000e+00  1.6784184233398944e-01 -1.2669328464537097e-02 0.0000000000000000e+00  2.664472331424