<?xml version="1.0"?>
<VTKFile type="UnstructuredGrid"  version="0.1"  >
<UnstructuredGrid>
<Piece  NumberOfPoints="1404" NumberOfCells="2604">
<Points>
<DataArray  type="Float64"  NumberOfComponents="3"  format="ascii">0 0.41 0  0 0 0  2.2 0 0  2.2 0.41 0  0.2353553390593274 0.2353553390593274 0  0.25 0.2 0  0.2353553390593274 0.1646446609406726 0  0.2 0.15 0  0.1646446609406726 0.1646446609406726 0  0.15 0.2 0  0.1646446609406726 0.2353553390593274 0  0.2 0.25 0  0.6923879532511287 0.188268343236509 0  0.7 0.15 0  0.6923879532511287 0.1117316567634909 0  0.6707106781186547 0.07928932188134523 0  0.6382683432365089 0.05761204674887133 0  0.6 0.04999999999999999 0  0.5617316567634909 0.05761204674887134 0  0.5292893218813453 0.07928932188134524 0  0.5076120467488713 0.111731656763491 0  0.5 0.15 0  0.5076120467488713 0.188268343236509 0  0.5292893218813453 0.2207106781186547 0  0.561731656763491 0.2423879532511287 0  0.6 0.25 0  0.6382683432365089 0.2423879532511287 0  0.6707106781186547 0.2207106781186547 0  1.1 0 0  0 0.205 0  1.1 0.41 0  0.55 0 0  0.55 0.41 0  0.275 0 0  0.8250000000000001 0 0  0.275 0.41 0  0.8250000000000001 0.41 0  0.6875 0 0  0.61875 0 0  1.65 0.41 0  1.65 0 0  1.375 0 0  1.375 0.41 0  1.925 0 0  1.925 0.41 0  1.5125 0.205 0  1.7875 0.205 0  0.9625000000000001 0.205 0  1.2375 0.205 0  2.2 0.205 0  1.99375 0.2152743902439024 0  0.4125 0.41 0  2.0625 0 0  2.0625 0.41 0  2.2 0.3075 0  1.7875 0.41 0  1.375 0.1486128048780488 0  1.5125 0 0  1.7875 0 0  1.5125 0.41 0  0.9625000000000001 0.41 0  0.4125 0 0  0.1375 0 0  0.1375 0.41 0  0.6875 0.41 0  0.9625000000000001 0 0  1.2375 0 0  1.1 0.1486128048780488 0  1.2375 0.41 0  1.65 0.1486128048780487 0  0.823495464168302 0.2603780552348366 0  0.3738707794507017 0.2720196349488618 0  0.3662291281331582 0.1311456406657909 0  1.676715909090909 0.2793064024390244 0  1.126715909090909 0.2793064024390244 0  1.348284090909091 0.2793064024390244 0  0.8287581077665108 0.1302150898054257 0  1.894702181800738 0.1282910975492754 0  2.092797818199262 0.1282910975492754 0  1.85625 0.3075 0  0 0.3075 0  0 0.1025 0  2.099172119769978 0.25625 0  0.4752414543992246 0.3180372603390748 0  1.99375 0.08395950269330846 0  1.459960956013612 0.3075 0  1.569025960719943 0.2986889805672169 0  1.03125 0.3278689922742084 0  1.959375 0.3126371951219512 0  1.749222215368287 0.1025 0  1.275777784631713 0.1025 0  0.9228016959331474 0.3075 0  1.000777784631713 0.1025 0  2.2 0.1025 0  1.225938124459196 0.3075 0  1.550777784631713 0.1025 0  1.44375 0.07430640243902442 0  1.16875 0.07430640243902439 0  0.7562500000000001 0.3358727844323386 0  0.89375 0 0  1.899250267340833 0.2229966846119207 0  0.61875 0.41 0  1.766482954545455 0.2934032012195123 0  1.046078563095834 0.2389031808701145 0  1.421109702350723 0.2261157654379721 0  0.07567171807980319 0.25625 0  0.2511897295290552 0.3235829392832554 0  0.07655002503762308 0.1488653460959645 0  0.1377245246847496 0.3206030474919778 0  0.6694099692696568 0.3242771941727899 0  0.9168971191497528 0.1295727156104653 0  0.7562500000000001 0 0  2.118919042110979 0.3422084711244843 0  2.13125 0 0  0.06875000000000001 0 0  1.30625 0.41 0  1.597888256393107 0.2173787389261347 0  0.34375 0.41 0  0.2493272016354703 0.08091360081773515 0  0.5588896233436766 0.3264056208677571 0  1.829299675393195 0.07400700849299596 0  0.1334079128307869 0.08523463035786674 0  1.71875 0.41 0  0.06875000000000001 0.41 0  1.16875 0.41 0  2.038220665644273 0.332420740103091 0  0.8810647413215221 0.2027360103977071 0  0.34375 0 0  0.7453891198966415 0.2471459041008237 0  0.42112093004955 0.1988123139090554 0  0.8314023090855964 0.3351170841770613 0  0.89375 0.41 0  0.7906250000000001 0.06615386481594063 0  1.452769549894695 0.1548122580621249 0  1.369219062229598 0.07430640243902442 0  1.30625 0 0  1.07420695807087 0.07430640243902439 0  1.720943423819132 0.1714577452753128 0  1.157188124459196 0.205 0  1.304056576180868 0.1714577452753128 0  1.67579304192913 0.07430640243902437 0  1.209670467133757 0.136210026696477 0  0.4312800784902823 0.08036147352247747 0  0.8723959680194693 0.07066860609690805 0  1.025335513626278 0.1700681449722324 0  0.7945632284247136 0.1940204203251442 0  0.378125 0.3452261501101892 0  0.3307109909790086 0.2037165635083759 0  0.3009701032039409 0.2702970083403109 0  0.20625 0.41 0  1.58125 0 0  0.4812500000000001 0 0  0.9838963872396855 0.2722244191167347 0  0.06772484939107212 0.3260067317374387 0  0.20625 0 0  1.58125 0.41 0  1.631724228912893 0.3381867502687533 0  1.825608881788174 0.14499488549201 0  1.85625 0 0  1.44375 0 0  1.44375 0.41 0  1.85625 0.41 0  2.13125 0.41 0  0.7562500000000001 0.41 0  0.4812500000000001 0.41 0  1.16875 0 0  1.03125 0.41 0  1.03125 0 0  1.71875 0 0  1.99375 0 0  1.99375 0.41 0  0.9408708167433545 0.0651989315768642 0  1.340625 0.3489494290853124 0  1.134375 0.3489494290853123 0  1.700180620188976 0.3438659752031281 0  0.29668452290037 0.1318471691375986 0  0.3175441051360096 0.06496934809856265 0  0.06509151636162461 0.08140814015999148 0  2.135782184673599 0.07126652247502523 0  1.668441847249787 0.2129203728327609 0  1.295782514339747 0.2378437748815763 0  1.409375 0.3520314716057996 0  2.129248544730567 0.1906135162504124 0  2.060771381434487 0.1989445750470348 0  2.013252586573865 0.1496169464686054 0  1.942766402200229 0.1734448904596831 0  1.895522487186454 0.06076163953489683 0  2.069553871656643 0.06605731020975725 0  0.4670911801404742 0.2498408582391372 0  0.7622743084658112 0.1264100838268133 0  1.274680914880868 0.3520219391081363 0  0.3148669572599245 0.3331753056385887 0  1.614713220494657 0.09473434380863296 0  1.72990325744076 0.2380068107952482 0  1.356580098625191 0.2120393231351682 0  2.034370752044885 0.2668681600792073 0  1.51768709249349 0.3426260931494756 0  1.561883724969884 0.1650446847858835 0  1.197344062229598 0.2523725417393646 0  1.804085235518364 0.3468178408964637 0  1.817887819205233 0.2589243285818559 0  1.905897727272727 0.3485060975609756 0  0.7296439733931823 0.06337466644369745 0  0.4250935971865949 0.1394919578475796 0  0.3773030136511669 0.05130372097998036 0  1.192836486056382 0.3562350748565544 0  1.1029124365364 0.226143510831178 0  1.28257088594801 0.2944411014911587 0  0.1905185804731426 0.06029880676029167 0  1.474860187679412 0.2504218616229368 0  1.406767003493824 0.2829282258560709 0  0.5209826960981064 0.2830664557824064 0  0.5131119502780163 0.3617405848213254 0  0.1948220106098172 0.3081993407644811 0  1.845656689180403 0.1998310418452388 0  2.144958525570388 0.2909790873294231 0  2.2 0.15375 0  0.8833025251326762 0.2625402923007629 0  0.171875 0.3653875762360952 0  1.57794966442982 0.3540357145964566 0  0.446875 0.366068291212731 0  0.4272051715206439 0.2891929346190664 0  1.508991196088596 0.1421783375065625 0  1.50436820029908 0.06143401634903343 0  1.223857000523521 0.08235548624535324 0  0.6137904613287555 0.3066826366281556 0  1.153316824384777 0.1289850171317838 0  0.9751573703656133 0.327632618473408 0  2.148922302309752 0.1258841779285271 0  0.9281250000000001 0.3643758685795699 0  1.621993280276081 0.2841214267927899 0  1.550118654119087 0.2461998729100966 0  1.327182649291491 0.1216967252533594 0  0.9939955742738924 0.04663549843168518 0  1.753125 0.04556020050186112 0  1.271875 0.04556020050186116 0  0.9734326767716519 0.1506854560854393 0  0.103125 0.3675775577080512 0  1.94956388244759 0.1180512551534177 0  1.949997712993411 0.04965831614304109 0  0.717433898748555 0.295596016333797 0  1.771961817615021 0.1530278789497521 0  1.909246823951428 0.2812757146784527 0  0 0.35875 0  1.050632804931928 0.1226269704412814 0  0.05695108326502596 0.2024009637347154 0  1.948575539857022 0.2445328248721197 0  1.697271520964565 0.1233917627620729 0  1.065625 0.3689344961371042 0  1.085849084308977 0.3170853572226867 0  0.1015495998772944 0.04226029099983852 0  1.577403511714593 0.05463601888079143 0  1.751571320346033 0.3651102912045228 0  2.2 0.35875 0  0.7441773632462837 0.1786786606458751 0  0 0.05125 0  1.466879772203159 0.3611261772912453 0  0.6282230348858767 0.3577675483994025 0  1.990280163552011 0.3564754268533217 0  1.17471064520912 0.2990917256188288 0  0 0.25625 0  2.2 0.25625 0  2.2 0.05125 0  0 0.15375 0  1.853978576207987 0.35875 0  1.515638456102889 0.2882700110184686 0  2.150453692751374 0.2387066338105111 0  1.323782677156475 0.04897634338873398 0  1.409375 0.03715320121951221 0  1.406484531114799 0.1087852750766809 0  1.134375 0.03715320121951219 0  0.721875 0.3729363922161693 0  0.7941695928236929 0.3696489254637395 0  0.7934827162619036 0.3013409431456604 0  1.627401732573545 0.04552157221025036 0  0.9352049974617431 0.2507047965699472 0  0.8763260682738339 0.3611103317460093 0  2.045405893604797 0.1105340662939892 0  1.255408269734577 0.1577307500159216 0  2.028125 0.03707597992059326 0  1.003030137506755 0.3689344961371042 0  1.248258025468107 0.2565907092181813 0  1.203125 0.03661323374043041 0  0.4800125512335631 0.0549472816999725 0  2.072662025974815 0.2975086504196739 0  0.240625 0.3729825336867542 0  1.113252391110535 0.10238286244357 0  1.071052763974265 0.1885202618768825 0  0.8738809401657862 0.3106483608284829 0  0.6786819423003397 0.2677558482644021 0  1.887722846421017 0.1760882698830035 0  1.472640588990488 0.1118278026240017 0  0.5843750000000001 0.41 0  1.865937103925594 0.2604137786483804 0  1.463913572748262 0.2030442564990043 0  1.376426316059077 0.3186741374914345 0  0.1038643885363755 0.2162701735320032 0  0.1769473813227781 0.1070849728467114 0  0.458787839809176 0.171541653775316 0  0.240625 0 0  0.04179569703428024 0.2877217852556549 0  0.1258346557601885 0.2699740073054968 0  1.722140693354707 0.282908100935778 0  0.41206179117512 0.2448172567039922 0  0.3702471778075604 0.2265217604228704 0  0.3714881805374215 0.1786967818665642 0  1.77397096061971 0.2481483237422926 0  2.105123889160691 0.03743885948498647 0  1.001138337938679 0.229719337663998 0  1.051242910646791 0.2854826559431138 0  1.395420985247586 0.18
[...]
<PointData  Vectors="f_37"> 
<DataArray  type="Float64"  Name="f_37"  NumberOfComponents="3" format="ascii">2.5422549215118842e-07 5.1737645397723559e-08 0.0000000000000000e+00  -4.4434710143307977e-06 -3.6379612525895951e-07 0.0000000000000000e+00  -6.6340925173422824e-07 3.9839102589166081e-10 0.0000000000000000e+00  -8.8262004407025471e-07 4.8625317525208516e-11 0.0000000000000000e+00  -1.1860680697856451e-08 1.8049436506778728e-07 0.0000000000000000e+00  2.2680979410969773e-07 -3.1085503627324649e-07 0.0000000000000000e+00  1.9994111796698084e-07 7.3414686737891453e-08 0.0000000000000000e+00  -8.6932805930133675e-07 -1.5172811240077626e-07 0.0000000000000000e+00  -8.1926113621495958e-07 -1.9813331161197938e-07 0.0000000000000000e+00  1.2374430389696677e-07 -5.5430830087391181e-07 0.0000000000000000e+00  -1.0265920730050976e-06 -5.7192877072530282e-07 0.0000000000000000e+00  -1.1740862253552494e-06 -2.3451668004730543e-07 0.0000000000000000e+00  4.2201302666314143e-07 5.1181850529994709e-07 0.0000000000000000e+00  -4.5507382278153682e-07 -4.5705952887278267e-07 0.0000000000000000e+00  -4.3617433543924060e-07 -2.1261973215285817e-07 0.0000000000000000e+00  -1.8583282214077234e-06 -5.2971347425709393e-07 0.0000000000000000e+00  1.5194553965295603e-06 5.9038734346997330e-07 0.0000000000000000e+00  3.4435158454644582e-01 9.6026747267242821e-02 0.0000000000000000e+00  2.6960185472903643e-06 1.1221088968632245e-06 0.0000000000000000e+00  8.6328999986173711e-07 1.9737218122170359e-07 0.0000000000000000e+00  -1.4932881973136315e-06 1.3545990893563901e-07 0.0000000000000000e+00  -2.9099236185089958e-07 -5.4887368247157414e-07 0.0000000000000000e+00  -4.0488252503836674e-07 -8.2075641005382058e-07 0.0000000000000000e+00  -1.4475035055086427e-06 -1.7453910542810521e-06 0.0000000000000000e+00  -3.1912557018756072e-06 -8.0927762826608045e-07 0.0000000000000000e+00  -3.9363258607998940e-06 -7.9351501344372003e-08 0.0000000000000000e+00  -4.1049085031138983e-06 -2.6023837262200311e-07 0.0000000000000000e+00  -2.9853644872860080e-07 2.0376607685259709e-07 0.0000000000000000e+00  -8.5634867454128351e-07 1.0427774143458853e-07 0.0000000000000000e+00  1.6583343752854324e-01 -4.7618826525459331e-07 0.0000000000000000e+00  8.7292777696222954e-07 4.6956094630696206e-07 0.0000000000000000e+00  3.3489443587089568e-06 1.2115839220876868e-06 0.0000000000000000e+00  -3.9549181683868419e-07 -4.9250721053932053e-08 0.0000000000000000e+00  4.8800142776202294e-07 6.0221700038970019e-08 0.0000000000000000e+00  -6.4878930184394896e-08 -5.4618889293695170e-08 0.0000000000000000e+00  -9.3474487782385376e-07 3.4560182755595836e-09 0.0000000000000000e+00  -1.6152891037100421e-06 -9.9635901189782938e-08 0.0000000000000000e+00  -2.7180667166384297e-06 -5.2770505123988825e-07 0.0000000000000000e+00  -9.5397563949344422e-06 -8.5225439380737584e-07 0.0000000000000000e+00  -9.9736594504405333e-07 -7.6168205729852063e-09 0.0000000000000000e+00  -1.2320131032862340e-06 -1.0640551074229100e-08 0.0000000000000000e+00  -5.3058891245023852e-07 1.9447413275487991e-08 0.0000000000000000e+00  -1.2050924902255867e-06 -1.0879372881319121e-07 0.0000000000000000e+00  -4.9992670387897208e-07 -4.4294394363712122e-10 0.0000000000000000e+00  -6.5822091131060235e-08 -1.6659180627785921e-10 0.0000000000000000e+00  2.1887306782689500e-01 3.8848559299004921e-03 0.0000000000000000e+00  2.1885771350767444e-01 3.0623084040742030e-04 0.0000000000000000e+00  2.1262300264341752e-01 -3.0009071919489153e-02 0.0000000000000000e+00  2.6025947663797594e-01 -3.4342857889676823e-02 0.0000000000000000e+00  2.1888031374247649e-01 -3.2592172227253974e-06 0.0000000000000000e+00  2.1869318496148490e-01 1.9636103860967081e-05 0.0000000000000000e+00  3.5436444430634130e-07 1.3621861685349497e-08 0.0000000000000000e+00  1.7563051222608190e-07 4.0958280532129580e-10 0.0000000000000000e+00  -5.6853974270204483e-07 6.3994726830703259e-10 0.0000000000000000e+00  1.8897022741635475e-01 -8.5498535706632327e-06 0.0000000000000000e+00  -8.2976906513927180e-07 -2.2140229247344323e-09 0.0000000000000000e+00  2.1729936820784948e-01 2.1035166706077054e-03 0.0000000000000000e+00  -1.1282104675331977e-06 -2.6623831352004473e-08 0.0000000000000000e+00  -1.0267064796102279e-06 -2.0934607436226999e-09 0.0000000000000000e+00  -7.9173305497437845e-07 -2.8285503053823851e-08 0.0000000000000000e+00  -4.7262208002322314e-07 -9.4038332135051911e-08 0.0000000000000000e+00  -4.7796400106851012e-07 -7.9623173196837583e-08 0.0000000000000000e+00  -7.8429113291095383e-07 -7.0630373171997896e-08 0.0000000000000000e+00  -4.4868692619258056e-07 -8.1445210951172994e-08 0.0000000000000000e+00  -2.2835323572449270e-06 1.0688735639209366e-07 0.0000000000000000e+00  2.7661715264716268e-06 -6.8152246754856123e-07 0.0000000000000000e+00  -1.7995473492715511e-06 4.2276478167413175e-07 0.0000000000000000e+00  1.7317145253290420e-01 -9.0725806563737771e-02 0.0000000000000000e+00  4.4614563976014099e-07 -1.0880643410863674e-08 0.0000000000000000e+00  2.1313775858322401e-01 1.0918264488538488e-03 0.0000000000000000e+00  2.6989635096695269e-01 -3.5604168496699055e-02 0.0000000000000000e+00  1.0751017243295928e-01 2.8914224330812235e-03 0.0000000000000000e+00  3.0575894388623887e-01 1.0764913115678285e-01 0.0000000000000000e+00  2.0579161628006862e-01 7.3067405127057096e-04 0.0000000000000000e+00  2.8502855922976017e-01 -6.6007499893362714e-02 0.0000000000000000e+00  2.0068091021397921e-01 1.2296386997351073e-02 0.0000000000000000e+00  6.6091756402527416e-02 6.2965573690042992e-02 0.0000000000000000e+00  2.0528388674501802e-01 6.1235169165954213e-05 0.0000000000000000e+00  2.0522049305823709e-01 7.4153441037981019e-06 0.0000000000000000e+00  1.8889202181184728e-01 6.2106610815989318e-05 0.0000000000000000e+00  7.5234909233743152e-02 2.9871758013461061e-08 0.0000000000000000e+00  2.7319256166003897e-01 -1.2818934455276248e-08 0.0000000000000000e+00  2.1385094562595156e-01 3.6283922516419335e-07 0.0000000000000000e+00  2.3744379355120182e-01 7.1361069800028862e-02 0.0000000000000000e+00  1.7058323939036590e-01 5.9507644747226558e-06 0.0000000000000000e+00  1.8406531686922553e-01 4.2960908732261240e-03 0.0000000000000000e+00  1.9380591964338953e-01 1.7426250807857195e-03 0.0000000000000000e+00  2.6090873833330619e-01 -4.8870969279648666e-02 0.0000000000000000e+00  1.8450182055730693e-01 5.9315362834222039e-06 0.0000000000000000e+00  1.8922355661973297e-01 2.5516955380660352e-04 0.0000000000000000e+00  1.8577384757343399e-01 -1.8876948901506489e-02 0.0000000000000000e+00  3.9884445556674136e-01 -6.1924544522369077e-02 0.0000000000000000e+00  3.2197358535647563e-02 -3.7593785633876649e-03 0.0000000000000000e+00  1.8891891858301760e-01 2.7159698516985336e-06 0.0000000000000000e+00  1.7590696063050096e-01 2.7952069813568024e-03 0.0000000000000000e+00  1.9112126885902511e-01 1.9056149597535849e-03 0.0000000000000000e+00  1.6423282453902308e-01 2.4739813022356476e-03 0.0000000000000000e+00  1.0099722811024990e-01 -3.9160459339408607e-02 0.0000000000000000e+00  4.3172147487710444e-01 -3.5681152217501372e-02 0.0000000000000000e+00  1.1812383368896471e-06 -3.1776843869336552e-07 0.0000000000000000e+00  2.1833329522901110e-01 7.6963837551037194e-05 0.0000000000000000e+00  -8.7017803677287119e-07 1.5404416424787333e-07 0.0000000000000000e+00  1.9876627362020258e-01 2.5242307746964007e-04 0.0000000000000000e+00  3.4726818752188654e-01 -1.0773228168211331e-01 0.0000000000000000e+00  2.1816428566501053e-01 6.9379373787962348e-03 0.0000000000000000e+00  1.2576027367815215e-01 7.1582698643681886e-02 0.0000000000000000e+00  2.3155177894014572e-01 1.3931928473455571e-02 0.0000000000000000e+00  2.0870447634123832e-01 2.4749224102656921e-02 0.0000000000000000e+00  1.4778655512686789e-01 7.4128165474878688e-02 0.0000000000000000e+00  4.6100025078736934e-01 -1.0666649669323640e-02 0.0000000000000000e+00  6.0212422507708890e-02 3.6281145193708203e-02 0.0000000000000000e+00  -2.4237417446461570e-07 -1.2414043622479936e-07 0.0000000000000000e+00  1.4910249538957729e-01 -3.6495539438546572e-06 0.0000000000000000e+00  -1.6731173744638656e-06 -1.7526946218159623e-09 0.0000000000000000e+00  -1.2542145500976513e-06 5.1009113184202290e-09 0.0000000000000000e+00  -1.0611969711798027e-06 -2.0894028575080505e-07 0.0000000000000000e+00  2.1834990459019576e-01 1.9782279505122348e-03 0.0000000000000000e+00  -1.7238288948522476e-06 2.7309816230978171e-08 0.0000000000000000e+00  4.0322865966525834e-01 4.2949523959356362e-02 0.0000000000000000e+00  3.7402329850420596e-01 7.9044814966036853e-02 0.0000000000000000e+00  1.5809938739090793e-01 5.1256784405487794e-05 0.0000000000000000e+00  3.4339524116307452e-01 1.3484804961985196e-02 0.0000000000000000e+00  -1.0390684029284674e-06 -5.0528064390544733e-09 0.0000000000000000e+00  -1.1032907460517821e-07 -7.8897450454239347e-09 0.0000000000000000e+00  1.8746086615186920e-06 3.4525657362870514e-07 0.0000000000000000e+00  1.6276577596883471e-01 -4.1282574721511139e-06 0.0000000000000000e+00  1.2758590551754084e-01 1.3692429919404501e-02 0.0000000000000000e+00  -2.9998611283327836e-07 -6.8023445514027065e-08 0.0000000000000000e+00  1.4085826190446701e-01 -2.2645008513541381e-02 0.0000000000000000e+00  1.5974361772738341e-01 1.5011715923645166e-01 0.0000000000000000e+00  4.0090062501369145e-01 -4.0414948347722877e-02 0.0000000000000000e+00  1.5955568463559978e-06 -2.3391730446796528e-07 0.0000000000000000e+00  9.9749321480733719e-02 5.1407212366513383e-02 0.0000000000000000e+00  2.1664183259338637e-01 4.5942598988603809e-03 0.0000000000000000e+00  1.6643887661836715e-01 1.2497830308976438e-03 0.0000000000000000e+00  -5.3652168688557535e-07 1.5835382016415226e-07 0.0000000000000000e+00  2.9725648598463706e-02 -2.9902834504695497e-02 0.0000000000000000e+00  2.1707392052427582e-01 5.8682286071860270e-04 0.0000000000000000e+00  2.9248257898055319e-01 -9.4048333439679888e-02 0.0000000000000000e+00  2.2948902012221795e-01 -1.0927588508265251e-02 0.0000000000000000e+00  1.5902063228017360e-01 3.8077047344582199e-04 0.0000000000000000e+00  2.0107442057481564e-01 -6.1081777248832847e-02 0.0000000000000000e+00  2.3573008971638690e-01 2.5356185753319774e-02 0.0000000000000000e+00  3.7335472974277098e-02 2.5773511896911773e-02 0.0000000000000000e+00  1.7601282061768125e-01 -5.5241246620385057e-02 0.0000000000000000e+00  3.3569043621473595e-02 2.5278419950952313e-02 0.0000000000000000e+00  2.1001426652292590e-01 7.5281633117514910e-03 0.0000000000000000e+00  3.6566001195146497e-02 1.4924051998913009e-02 0.0000000000000000e+00  1.0354300528108572e-01 -2.1107055954815837e-02 0.0000000000000000e+00  -9.5703566734717954e-07 -1.4601171073050332e-07 0.0000000000000000e+00  -4.7016801917809915e-07 -1.4914913929005057e-08 0.0000000000000000e+00  -4.7757785794051026e-07 3.5213997065009215e-07 0.0000000000000000e+00  3.8230417539131062e-01 -8.6199192791762594e-02 0.0000000000000000e+00  7.8093687435040277e-02 3.1488123844075344e-02 0.0000000000000000e+00  -2.1535370456222671e-06 -1.0429043741695170e-07 0.0000000000000000e+00  -7.8353894270349465e-07 -1.3177266480153047e-08 0.0000000000000000e+00  1.5397778158018272e-01 5.4592327926435169e-04 0.0000000000000000e+00  2.1158969548826922e-01 1.5997373492184983e-04 0.0000000000000000e+00  -7.1586905297008795e-07 -6.6897210006445636e-10 0.0000000000000000e+00  -5.6867974134477369e-07 -4.2673071664960800e-08 0.0000000000000000e+00  -1.3507725420537864e-06 -6.5874655523219734e-08 0.0000000000000000e+00  -1.4986430252254223e-07 -3.5630293260860078e-10 0.0000000000000000e+00  -9.8326582262058187e-08 -1.1823323834749716e-10 0.0000000000000000e+00  3.7430879690096649e-07 -1.5267843123152001e-07 0.0000000000000000e+00  -2.1259279970850557e-06 -2.7998423477430945e-07 0.0000000000000000e+00  -3.5010665139827028e-06 5.9899846723850240e-07 0.0000000000000000e+00  -6.5542437546801023e-08 1.2762773435435763e-07 0.0000000000000000e+00  2.6249411025191133e-06 -6.1206697149318226e-07 0.0000000000000000e+00  1.5060099974517229e-07 -3.2310187679858288e-09 0.0000000000000000e+00  -9.2167053338167468e-07 5.7963734520343756e-10 0.0000000000000000e+00  -3.1593132545029159e-07 -2.1056902649402248e-10 0.0000000000000000e+00  4.3430623149589946e-03 1.5319092985110938e-02 0.0000000000000000e+00  1.2190876175565747e-01 6.5654709143362511e-03 0.0000000000000000e+00  1.1898942885332073e-01 -1.2593341868572829e-02 0.0000000000000000e+00  1.4615615030998191e-01 2.3261792067028427e-04 0.0000000000000000e+00  2.9208452162376825e-01 7.6714115910426303e-02 0.0000000000000000e+00  3.3564663189515342e-01 5.4057815008996993e-02 0.0000000000000000e+00  3.1536346845689722e-01 2.6446362928279052e-02 0.0000000000000000e+00  1.5415026354020722e-01 9.6585106269140343e-06 0.0000000000000000e+00  2.1866459534404512e-01 1.0434855268755408e-03 0.0000000000000000e+00  2.3164567148372817e-01 4.6195098868095225e-03 0.0000000000000000e+00  1.2459208304875886e-01 3.4203858125387674e-03 0.0000000000000000e+00  2.1854039256061800e-01 2.6103829347162182e-07 0.0000000000000000e+00  2.1880566100420823e-01 2.8311909142859248e-06 0.0000000000000000e+00  2.1279835392332577e-01 4.8909022382514840e-06 0.0000000000000000e+00  2.1716377819022170e-01 3.5022658085431436e-05 0.0000000000000000e+00  1.3804349369110500e-01 1.0907563248764294e-05 0.0000000000000000e+00  1.4643545843443831e-01 1.0165490288221853e-05 0.0000000000000000e+00  2.0366029669604283e-01 1.9205255260997384e-01 0.0000000000000000e+00  4.5617037371857516e-02 6.1276977715187635e-02 0.0000000000000000e+00  1.0560021834556156e-01 7.5051972098405789e-03 0.0000000000000000e+00  2.1941490714518438e-01 -5.6521517098138659e-03 0.0000000000000000e+00  1.8326567170116254e-01 9.8034705760416700e-04 0.0000000000000000e+00  2.1680945166191479e-01 5.3264727633401776e-04 0.0000000000000000e+00  2.2472875721483632e-01 6.0288172719896232e-03 0.0000000000000000e+00  2.1100811977271999e-01 8.6145663114371172e-06 0.0000000000000000e+00  1.4532125558119388e-01 1.5152229354263736e-03 0.0000000000000000e+00  2.1689356482273908e-01 2.5354891195229576e-03 0.0000000000000000e+00  2.6671319144940930e-01 -3.7572906064922446e-02 0.0000000000000000e+00  1.4185867186072507e-01 5.6057984305164362e-05 0.0000000000000000e+00  2.1309864221695485e-01 1.8303951646034500e-04 0.0000000000000000e+00  1.3921535300258306e-01 1.0019455181857855e-05 0.0000000000000000e+00  1.5852207506733107e-01 8.2221771558553119e-02 0.0000000000000000e+00  2.4792808768910429e-01 1.3130585111220677e-01 0.0000000000000000e+00  2.1705006945603977e-01 3.1269072607214829e-02 0.0000000000000000e+00  9.0532299381939213e-02 -1.9843549206930379e-04 0.0000000000000000e+00  3.2737035816777338e-01 -1.1248418264165942e-01 0.0000000000000000e+00  1.8819905722891950e-01 1.3050414917928549e-02 0.0000000000000000e+00  3.9196797835186237e-01 1.8296058874212831e-02 0.0000000000000000e+00  2.1315266766843749e-01 5.0387434201375628e-03 0.0000000000000000e+00  1.9938274131012451e-01 8.0344283492944021e-03 0.0000000000000000e+00  3.4538720607891615e-01 1.8664090609347117e-01 0.0000000000000000e+00  2.7385533127668688e-01 3.5842591339016759e-02 0.0000000000000000e+00  2.3205250056806284e-01 7.1972276448582284e-02 0.0000000000000000e+00  2.1882175584953839e-01 1.5925562076417313e-04 0.0000000000000000e+00  2.0048549689563935e-01 -1.3294636594888854e-05 0.0000000000000000e+00  2.1383381286319544e-01 2.0266573834741912e-06 0.0000000000000000e+00  3.2101786763707146e-01 -4.5398006148641215e-02 0.0000000000000000e+00  1.2597905303853921e-01 2.5368296464918741e-02 0.0000000000000000e+00  1.2822146010383426e-01 6.5613584013240989e-04 0.0000000000000000e+00  2.0758715619314719e-01 2.1322051987579894e-02 0.0000000000000000e+00  1.5773182939899996e-01 4.7443678788891559e-02 0.0000000000000000e+00  2.1273564378427076e-01 3.4060694397410676e-03 0.0000000000000000e+00  1.4273095246645287e-01 1.4322916234799214e-03 0.0000000000000000e+00  1.4607526951931535e-01 -3.0057707181103031e-02 0.0000000000000000e+00  4.6842338003228284e-01 4.6232758665696011e-02 0.0000000000000000e+00  1.6473994890707394e-01 -8.1383821968352379e-02 0.0000000000000000e+00  3.1980173959855146e-01 -5.3037939090126933e-02 0.0000000000000000e+00  2.0409344751604966e-01 1.0916900315006976e-05 0.0000000000000000e+00  2.1619696236408831e-01 -2.0019802036841613e-02 0.0000000000000000e+00  2.0308488817461468e-01 1.1989412026186448e-03 0.0000000000000000e+00  2.1469782646301169e-01 2.7912401302841298e-03 0.0000000000000000e+00  2.0638706932117867e-01 -5.8226617413395469e-03 0.0000000000000000e+00  -1.4264258554555737e-02 2.6317754901543570e-03 0.0000000000000000e+00  1.1057288431292260e-01 7.5822427716045626e-05 0.0000000000000000e+00  1.1244099228103283e-01 -5.4421017570267117e-03 0.0000000000000000e+00  9.9798635141213787e-02 1.6801236878762277e-03 0.0000000000000000e+00  6.3065479950530814e-02 1.7779325150744183e-02 0.0000000000000000e+00  1.9984676910797158e-01 1.9335711123342524e-05 0.0000000000000000e+00  1.1834069180364354e-01 4.1138705596227971e-07 0.0000000000000000e+00  4.0498942764913959e-01 -3.8333777017627024e-02 0.0000000000000000e+00  2.1380206495433535e-01 3.1238530746880908e-04 0.0000000000000000e+00  2.0541328520438595e-01 3.5797432357015671e-05 0.0000000000000000e+00  3.5785436175117633e-02 7.8387660896864317e-08 0.0000000000000000e+00  8.3202735953966531e-02 -4.5498718828229402e-02 0.0000000000000000e+00  1.5902655780653915e-01 4.2341533183143681e-02 0.0000000000000000e+00  2.1606781150713220e-01 3.8815265579878151e-05 0.0000000000000000e+00  2.0331791285791737e-01 5.7594544745932590e-04 0.0000000000000000e+00  1.0188658430573305e-01 -1.0842072477014783e-02 0.0000000000000000e+00  2.3740026066214981e-01 -4.7906250110416444e-02 0.0000000000000000e+00  3.8075967841166292e-01 3.5770744489683211e-02 0.0000000000000000e+00  1.2920283728656290e-01 6.6417608112864736e-04 0.0000000000000000e+00  1.0890057181055061e-01 6.9509424731672577e-05 0.0000000000000000e+00  1.2128289841948862e-01 -7.4352930191671831e-06 0.0000000000000000e+00  -3.4563990056578620e-03 2.0342023078030423e-02 0.0000000000000000e+00  3.3356381706135702e-01 1.4268826872361133e-08 0.0000000000000000e+00  1.1202025388976919e-01 1.5526904522622990e-03 0.0000000000000000e+00  3.9037613275528144e-01 4.9457795079354558e-03 0.0000000000000000e+00  1.2549621848485451e-01 -8.0294822236078774e-07 0.0000000000000000e+00  2.1023567070305130e-01 -2.2893393721012397e-02 0.0000000000000000e+00  1.1852651140527552e-01 -6.2878104353338479e-08 0.0000000000000000e+00  2.1385799011329659e-01 6.6112419620505906e-06 0.0000000000000000e+00  1.2128153498954009e-01 1.0024228112336226e-05 0.0000000000000000e+00  2.1733316615569226e-01 -6.6827993909317631e-08 0.0000000000000000e+00  1.2129406595932550e-01 1.4583795037603396e-05 0.0000000000000000e+00  1.9934048993382350e-01 3.0722034315125756e-03 0.0000000000000000e+00  2.1690465073952883e-01 2.5701790749851375e-06 0.0000000000000000e+00  1.2513657441430248e-01 -1.0972265977283739e-03 0.0000000000000000e+00  9.9547985173510392e-02 9.6454265525172580e-04 0.0000000000000000e+00  1.9944982561350630e-01 3.2320306437452991e-03 0.0000000000000000e+00  3.3633434772786290e-02 -1.3988015253719217e-02 0.0000000000000000e+00  3.1497234344466274e-01 -1.6073754334451011e-02 0.0000000000000000e+00  2.8805724237329011e-01 -1.8602054365935958e-02 0.0000000000000000e+00  4.1413824070562438e-01 -4.7146787075900420e-02 0.0000000000000000e+00  1.1122331066367366e-01 3.0396161327637846e-04 0.0000000000000000e+00  3.2035763941328876e-01 -5.5612031892754245e-02 0.0000000000000000e+00  2.7322863764972932e-01 -2.3245582861508657e-02 0.0000000000000000e+00  1.9502490834917183e-01 9.9044906638211784e-06 0.0000000000000000e+00  2.2819088696626047e-01 -3.5514084949938511e-02 0.0000000000000000e+00  9.2829120306875401e-02 5.4637201727528452e-06 0.0000000000000000e+00  1.4005952767955837e-01 -1.3901960714987484e-02 0.0000000000000000e+00  2.3586078607047378e-01 -4.211534414