<?xml version="1.0"?>
<VTKFile type="UnstructuredGrid"  version="0.1"  >
<UnstructuredGrid>
<Piece  NumberOfPoints="1404" NumberOfCells="2604">
<Points>
<DataArray  type="Float64"  NumberOfComponents="3"  format="ascii">0 0.41 0  0 0 0  2.2 0 0  2.2 0.41 0  0.2353553390593274 0.2353553390593274 0  0.25 0.2 0  0.2353553390593274 0.1646446609406726 0  0.2 0.15 0  0.1646446609406726 0.1646446609406726 0  0.15 0.2 0  0.1646446609406726 0.2353553390593274 0  0.2 0.25 0  0.6923879532511287 0.188268343236509 0  0.7 0.15 0  0.6923879532511287 0.1117316567634909 0  0.6707106781186547 0.07928932188134523 0  0.6382683432365089 0.05761204674887133 0  0.6 0.04999999999999999 0  0.5617316567634909 0.05761204674887134 0  0.5292893218813453 0.07928932188134524 0  0.5076120467488713 0.111731656763491 0  0.5 0.15 0  0.5076120467488713 0.188268343236509 0  0.5292893218813453 0.2207106781186547 0  0.561731656763491 0.2423879532511287 0  0.6 0.25 0  0.6382683432365089 0.2423879532511287 0  0.6707106781186547 0.2207106781186547 0  1.1 0 0  0 0.205 0  1.1 0.41 0  0.55 0 0  0.55 0.41 0  0.275 0 0  0.8250000000000001 0 0  0.275 0.41 0  0.8250000000000001 0.41 0  0.6875 0 0  0.61875 0 0  1.65 0.41 0  1.65 0 0  1.375 0 0  1.375 0.41 0  1.925 0 0  1.925 0.41 0  1.5125 0.205 0  1.7875 0.205 0  0.9625000000000001 0.205 0  1.2375 0.205 0  2.2 0.205 0  1.99375 0.2152743902439024 0  0.4125 0.41 0  2.0625 0 0  2.0625 0.41 0  2.2 0.3075 0  1.7875 0.41 0  1.375 0.1486128048780488 0  1.5125 0 0  1.7875 0 0  1.5125 0.41 0  0.9625000000000001 0.41 0  0.4125 0 0  0.1375 0 0  0.1375 0.41 0  0.6875 0.41 0  0.9625000000000001 0 0  1.2375 0 0  1.1 0.1486128048780488 0  1.2375 0.41 0  1.65 0.1486128048780487 0  0.823495464168302 0.2603780552348366 0  0.3738707794507017 0.2720196349488618 0  0.3662291281331582 0.1311456406657909 0  1.676715909090909 0.2793064024390244 0  1.126715909090909 0.2793064024390244 0  1.348284090909091 0.2793064024390244 0  0.8287581077665108 0.1302150898054257 0  1.894702181800738 0.1282910975492754 0  2.092797818199262 0.1282910975492754 0  1.85625 0.3075 0  0 0.3075 0  0 0.1025 0  2.099172119769978 0.25625 0  0.4752414543992246 0.3180372603390748 0  1.99375 0.08395950269330846 0  1.459960956013612 0.3075 0  1.569025960719943 0.2986889805672169 0  1.03125 0.3278689922742084 0  1.959375 0.3126371951219512 0  1.749222215368287 0.1025 0  1.275777784631713 0.1025 0  0.9228016959331474 0.3075 0  1.000777784631713 0.1025 0  2.2 0.1025 0  1.225938124459196 0.3075 0  1.550777784631713 0.1025 0  1.44375 0.07430640243902442 0  1.16875 0.07430640243902439 0  0.7562500000000001 0.3358727844323386 0  0.89375 0 0  1.899250267340833 0.2229966846119207 0  0.61875 0.41 0  1.766482954545455 0.2934032012195123 0  1.046078563095834 0.2389031808701145 0  1.421109702350723 0.2261157654379721 0  0.07567171807980319 0.25625 0  0.2511897295290552 0.3235829392832554 0  0.07655002503762308 0.1488653460959645 0  0.1377245246847496 0.3206030474919778 0  0.6694099692696568 0.3242771941727899 0  0.9168971191497528 0.1295727156104653 0  0.7562500000000001 0 0  2.118919042110979 0.3422084711244843 0  2.13125 0 0  0.06875000000000001 0 0  1.30625 0.41 0  1.597888256393107 0.2173787389261347 0  0.34375 0.41 0  0.2493272016354703 0.08091360081773515 0  0.5588896233436766 0.3264056208677571 0  1.829299675393195 0.07400700849299596 0  0.1334079128307869 0.08523463035786674 0  1.71875 0.41 0  0.06875000000000001 0.41 0  1.16875 0.41 0  2.038220665644273 0.332420740103091 0  0.8810647413215221 0.2027360103977071 0  0.34375 0 0  0.7453891198966415 0.2471459041008237 0  0.42112093004955 0.1988123139090554 0  0.8314023090855964 0.3351170841770613 0  0.89375 0.41 0  0.7906250000000001 0.06615386481594063 0  1.452769549894695 0.1548122580621249 0  1.369219062229598 0.07430640243902442 0  1.30625 0 0  1.07420695807087 0.07430640243902439 0  1.720943423819132 0.1714577452753128 0  1.157188124459196 0.205 0  1.304056576180868 0.1714577452753128 0  1.67579304192913 0.07430640243902437 0  1.209670467133757 0.136210026696477 0  0.4312800784902823 0.08036147352247747 0  0.8723959680194693 0.07066860609690805 0  1.025335513626278 0.1700681449722324 0  0.7945632284247136 0.1940204203251442 0  0.378125 0.3452261501101892 0  0.3307109909790086 0.2037165635083759 0  0.3009701032039409 0.2702970083403109 0  0.20625 0.41 0  1.58125 0 0  0.4812500000000001 0 0  0.9838963872396855 0.2722244191167347 0  0.06772484939107212 0.3260067317374387 0  0.20625 0 0  1.58125 0.41 0  1.631724228912893 0.3381867502687533 0  1.825608881788174 0.14499488549201 0  1.85625 0 0  1.44375 0 0  1.44375 0.41 0  1.85625 0.41 0  2.13125 0.41 0  0.7562500000000001 0.41 0  0.4812500000000001 0.41 0  1.16875 0 0  1.03125 0.41 0  1.03125 0 0  1.71875 0 0  1.99375 0 0  1.99375 0.41 0  0.9408708167433545 0.0651989315768642 0  1.340625 0.3489494290853124 0  1.134375 0.3489494290853123 0  1.700180620188976 0.3438659752031281 0  0.29668452290037 0.1318471691375986 0  0.3175441051360096 0.06496934809856265 0  0.06509151636162461 0.08140814015999148 0  2.135782184673599 0.07126652247502523 0  1.668441847249787 0.2129203728327609 0  1.295782514339747 0.2378437748815763 0  1.409375 0.3520314716057996 0  2.129248544730567 0.1906135162504124 0  2.060771381434487 0.1989445750470348 0  2.013252586573865 0.1496169464686054 0  1.942766402200229 0.1734448904596831 0  1.895522487186454 0.06076163953489683 0  2.069553871656643 0.06605731020975725 0  0.4670911801404742 0.2498408582391372 0  0.7622743084658112 0.1264100838268133 0  1.274680914880868 0.3520219391081363 0  0.3148669572599245 0.3331753056385887 0  1.614713220494657 0.09473434380863296 0  1.72990325744076 0.2380068107952482 0  1.356580098625191 0.2120393231351682 0  2.034370752044885 0.2668681600792073 0  1.51768709249349 0.3426260931494756 0  1.561883724969884 0.1650446847858835 0  1.197344062229598 0.2523725417393646 0  1.804085235518364 0.3468178408964637 0  1.817887819205233 0.2589243285818559 0  1.905897727272727 0.3485060975609756 0  0.7296439733931823 0.06337466644369745 0  0.4250935971865949 0.1394919578475796 0  0.3773030136511669 0.05130372097998036 0  1.192836486056382 0.3562350748565544 0  1.1029124365364 0.226143510831178 0  1.28257088594801 0.2944411014911587 0  0.1905185804731426 0.06029880676029167 0  1.474860187679412 0.2504218616229368 0  1.406767003493824 0.2829282258560709 0  0.5209826960981064 0.2830664557824064 0  0.5131119502780163 0.3617405848213254 0  0.1948220106098172 0.3081993407644811 0  1.845656689180403 0.1998310418452388 0  2.144958525570388 0.2909790873294231 0  2.2 0.15375 0  0.8833025251326762 0.2625402923007629 0  0.171875 0.3653875762360952 0  1.57794966442982 0.3540357145964566 0  0.446875 0.366068291212731 0  0.4272051715206439 0.2891929346190664 0  1.508991196088596 0.1421783375065625 0  1.50436820029908 0.06143401634903343 0  1.223857000523521 0.08235548624535324 0  0.6137904613287555 0.3066826366281556 0  1.153316824384777 0.1289850171317838 0  0.9751573703656133 0.327632618473408 0  2.148922302309752 0.1258841779285271 0  0.9281250000000001 0.3643758685795699 0  1.621993280276081 0.2841214267927899 0  1.550118654119087 0.2461998729100966 0  1.327182649291491 0.1216967252533594 0  0.9939955742738924 0.04663549843168518 0  1.753125 0.04556020050186112 0  1.271875 0.04556020050186116 0  0.9734326767716519 0.1506854560854393 0  0.103125 0.3675775577080512 0  1.94956388244759 0.1180512551534177 0  1.949997712993411 0.04965831614304109 0  0.717433898748555 0.295596016333797 0  1.771961817615021 0.1530278789497521 0  1.909246823951428 0.2812757146784527 0  0 0.35875 0  1.050632804931928 0.1226269704412814 0  0.05695108326502596 0.2024009637347154 0  1.948575539857022 0.2445328248721197 0  1.697271520964565 0.1233917627620729 0  1.065625 0.3689344961371042 0  1.085849084308977 0.3170853572226867 0  0.1015495998772944 0.04226029099983852 0  1.577403511714593 0.05463601888079143 0  1.751571320346033 0.3651102912045228 0  2.2 0.35875 0  0.7441773632462837 0.1786786606458751 0  0 0.05125 0  1.466879772203159 0.3611261772912453 0  0.6282230348858767 0.3577675483994025 0  1.990280163552011 0.3564754268533217 0  1.17471064520912 0.2990917256188288 0  0 0.25625 0  2.2 0.25625 0  2.2 0.05125 0  0 0.15375 0  1.853978576207987 0.35875 0  1.515638456102889 0.2882700110184686 0  2.150453692751374 0.2387066338105111 0  1.323782677156475 0.04897634338873398 0  1.409375 0.03715320121951221 0  1.406484531114799 0.1087852750766809 0  1.134375 0.03715320121951219 0  0.721875 0.3729363922161693 0  0.7941695928236929 0.3696489254637395 0  0.7934827162619036 0.3013409431456604 0  1.627401732573545 0.04552157221025036 0  0.9352049974617431 0.2507047965699472 0  0.8763260682738339 0.3611103317460093 0  2.045405893604797 0.1105340662939892 0  1.255408269734577 0.1577307500159216 0  2.028125 0.03707597992059326 0  1.003030137506755 0.3689344961371042 0  1.248258025468107 0.2565907092181813 0  1.203125 0.03661323374043041 0  0.4800125512335631 0.0549472816999725 0  2.072662025974815 0.2975086504196739 0  0.240625 0.3729825336867542 0  1.113252391110535 0.10238286244357 0  1.071052763974265 0.1885202618768825 0  0.8738809401657862 0.3106483608284829 0  0.6786819423003397 0.2677558482644021 0  1.887722846421017 0.1760882698830035 0  1.472640588990488 0.1118278026240017 0  0.5843750000000001 0.41 0  1.865937103925594 0.2604137786483804 0  1.463913572748262 0.2030442564990043 0  1.376426316059077 0.3186741374914345 0  0.1038643885363755 0.2162701735320032 0  0.1769473813227781 0.1070849728467114 0  0.458787839809176 0.171541653775316 0  0.240625 0 0  0.04179569703428024 0.2877217852556549 0  0.1258346557601885 0.2699740073054968 0  1.722140693354707 0.282908100935778 0  0.41206179117512 0.2448172567039922 0  0.3702471778075604 0.2265217604228704 0  0.3714881805374215 0.1786967818665642 0  1.77397096061971 0.2481483237422926 0  2.105123889160691 0.03743885948498647 0  1.001138337938679 0.229719337663998 0  1.051242910646791 0.2854826559431138 0  1.395420985247586 0.18
[...]
<PointData  Vectors="f_37"> 
<DataArray  type="Float64"  Name="f_37"  NumberOfComponents="3" format="ascii">2.5035846944875465e-07 4.5995959638023750e-08 0.0000000000000000e+00  -4.4504409349942026e-06 -3.5855205174651901e-07 0.0000000000000000e+00  -6.5312827448514808e-07 6.7409029932166184e-10 0.0000000000000000e+00  -8.4725908165564652e-07 1.5856905564942630e-10 0.0000000000000000e+00  -6.9796220803067286e-10 2.8915490933987407e-07 0.0000000000000000e+00  1.5444384185530169e-07 -5.2163568356987976e-08 0.0000000000000000e+00  1.2737150265310381e-07 1.7956605560048857e-07 0.0000000000000000e+00  -9.4398264131556542e-07 -8.7107928923940659e-08 0.0000000000000000e+00  -7.7988140029763109e-07 -1.3212298813561546e-07 0.0000000000000000e+00  1.0699210184400646e-07 -5.1885082896591503e-07 0.0000000000000000e+00  -9.5306060783531940e-07 -5.0547952567491757e-07 0.0000000000000000e+00  -1.0211358826176986e-06 -2.2679113578281943e-07 0.0000000000000000e+00  3.2609736080606344e-07 3.5061849664791059e-07 0.0000000000000000e+00  -3.0627407795310622e-07 -1.2573066988738390e-07 0.0000000000000000e+00  -2.8912175151399149e-07 1.2621577464773464e-07 0.0000000000000000e+00  -9.2358816839143648e-07 -3.3443170541646143e-07 0.0000000000000000e+00  2.2496071217878435e-06 3.1184077129477494e-07 0.0000000000000000e+00  3.4832685517249978e-01 9.6842390518766822e-02 0.0000000000000000e+00  1.4939275001365769e-06 -6.7420050939285476e-08 0.0000000000000000e+00  -1.3006771009845363e-06 3.5135966317534671e-07 0.0000000000000000e+00  -1.3834859561996572e-06 -1.1429005966448553e-07 0.0000000000000000e+00  -1.5666130296644273e-08 -3.1627981261756556e-07 0.0000000000000000e+00  3.9072427398468145e-07 5.2899236971970213e-08 0.0000000000000000e+00  -6.8309566755696358e-07 -1.8413533733954687e-06 0.0000000000000000e+00  -3.2483042255743178e-06 -1.4269179071424742e-06 0.0000000000000000e+00  -4.4314681134562193e-06 -2.3648223986155155e-07 0.0000000000000000e+00  -4.3791271918615877e-06 -4.5314049577637034e-08 0.0000000000000000e+00  -4.1089394520856573e-07 2.2518616999973498e-07 0.0000000000000000e+00  3.0984844056425648e-06 -7.3138814738675809e-07 0.0000000000000000e+00  1.6583342697445774e-01 -4.3677253672905444e-07 0.0000000000000000e+00  -1.1082739265327461e-06 -3.3914766487879769e-08 0.0000000000000000e+00  2.8810709467528188e-06 9.9160250987470311e-08 0.0000000000000000e+00  -4.8343187106472909e-07 -9.6016658863032906e-08 0.0000000000000000e+00  4.1281154477506574e-07 4.9912557434931433e-08 0.0000000000000000e+00  -4.2916983894151367e-07 -5.3171329504161520e-09 0.0000000000000000e+00  -1.0474071895353810e-06 -1.0430534435271739e-08 0.0000000000000000e+00  -1.4783100336761379e-06 6.7315224597210661e-08 0.0000000000000000e+00  -2.5328112990208854e-06 -4.8732555198485550e-07 0.0000000000000000e+00  -8.9055952523372640e-06 -1.1827642051936404e-06 0.0000000000000000e+00  -1.1162118632853454e-06 -3.4176126752856477e-08 0.0000000000000000e+00  -1.0285025069491516e-06 -4.4677681577712508e-08 0.0000000000000000e+00  -2.3605902169267345e-06 4.8860553999986347e-07 0.0000000000000000e+00  5.6920337480765484e-09 -4.0437736865382384e-08 0.0000000000000000e+00  -4.9931016363663351e-07 -4.6880474135937952e-10 0.0000000000000000e+00  -6.3723578752644969e-08 2.0625735704829839e-10 0.0000000000000000e+00  2.2827966328079083e-01 1.6336467400717467e-02 0.0000000000000000e+00  2.2546370426292706e-01 1.1278685441907983e-03 0.0000000000000000e+00  1.7111299200098445e-01 -3.4600181810204660e-03 0.0000000000000000e+00  3.0527891610592378e-01 -9.8967961619779818e-02 0.0000000000000000e+00  2.2550649548623750e-01 -2.3574990615767867e-05 0.0000000000000000e+00  2.2521614660115849e-01 -2.5378757332081795e-05 0.0000000000000000e+00  2.8174465017777074e-07 -2.9282525157018386e-10 0.0000000000000000e+00  1.6329036820823290e-07 2.6483399487535729e-10 0.0000000000000000e+00  -5.5100670590042924e-07 9.8320736795428787e-10 0.0000000000000000e+00  1.8682598440244921e-01 -2.2512615319909375e-05 0.0000000000000000e+00  -7.9959602226210959e-07 -6.5214672272406666e-09 0.0000000000000000e+00  2.4063755435224321e-01 -2.5471879685968039e-02 0.0000000000000000e+00  -9.9590552167284283e-07 -5.3945607634600508e-08 0.0000000000000000e+00  -9.9918050678432658e-07 -7.0799701064705607e-09 0.0000000000000000e+00  -1.3837674730740957e-06 -1.3877232348937231e-07 0.0000000000000000e+00  -4.9619545782878843e-07 -1.3058917396329123e-07 0.0000000000000000e+00  -4.2477157924299996e-07 -8.9005785784400351e-08 0.0000000000000000e+00  -8.3559567875280263e-07 -6.4915222411355933e-08 0.0000000000000000e+00  -3.7190805614434282e-07 -5.3969731258526787e-08 0.0000000000000000e+00  -2.3784625209946595e-06 8.3824565105174501e-08 0.0000000000000000e+00  9.5888734655616095e-08 -4.9357172694001138e-08 0.0000000000000000e+00  -1.4388516311907646e-06 8.5907451476440470e-09 0.0000000000000000e+00  1.4460651670823133e-01 -2.6688402747264996e-02 0.0000000000000000e+00  1.1208665469930961e-06 3.4918067735487073e-07 0.0000000000000000e+00  2.1850512979486506e-01 5.0914958041254647e-03 0.0000000000000000e+00  2.6264754075798891e-01 -3.6753837702445960e-02 0.0000000000000000e+00  1.0684196695903828e-01 5.2985549672980104e-03 0.0000000000000000e+00  3.0478899250201247e-01 1.0664159918729392e-01 0.0000000000000000e+00  2.0538278679804212e-01 3.2421514009561567e-03 0.0000000000000000e+00  3.4241106499938412e-01 -7.9518975584091031e-02 0.0000000000000000e+00  1.9632536893314748e-01 -3.5786448514217508e-04 0.0000000000000000e+00  7.1490888025511359e-02 5.1612344615515629e-02 0.0000000000000000e+00  2.0628193430347036e-01 9.7831200097818989e-05 0.0000000000000000e+00  2.0621097645049549e-01 -3.4893271055718567e-05 0.0000000000000000e+00  1.8673407371570228e-01 1.4094919164175324e-04 0.0000000000000000e+00  7.5234905336180422e-02 5.1021519937423440e-08 0.0000000000000000e+00  2.7319255023024985e-01 1.0520188028734378e-08 0.0000000000000000e+00  2.1782851209939949e-01 -4.2826730843118696e-05 0.0000000000000000e+00  2.4134339335731017e-01 7.2105497955677139e-02 0.0000000000000000e+00  1.6646027964946375e-01 -2.9146662910340406e-05 0.0000000000000000e+00  1.6292404154063883e-01 1.7204415636225337e-02 0.0000000000000000e+00  1.8604660034925929e-01 8.5827090198603104e-03 0.0000000000000000e+00  3.1254832192093063e-01 -3.8667029926520310e-02 0.0000000000000000e+00  1.8184173929105649e-01 -3.3643145352156346e-05 0.0000000000000000e+00  1.8760059543014723e-01 1.0148535707512282e-03 0.0000000000000000e+00  1.5238143614572827e-01 -6.0106738355130168e-02 0.0000000000000000e+00  3.9431283310976284e-01 -3.9915454156530777e-02 0.0000000000000000e+00  4.2672050461407297e-02 2.2911386390876979e-02 0.0000000000000000e+00  1.8671124515068294e-01 -1.0738582941580742e-05 0.0000000000000000e+00  2.0424221038539206e-01 -3.9456808025099127e-02 0.0000000000000000e+00  1.9653985943881494e-01 7.2644077391596290e-03 0.0000000000000000e+00  1.7106529372030702e-01 9.1548931315105578e-04 0.0000000000000000e+00  3.1925123765925101e-02 -2.7565595936318115e-02 0.0000000000000000e+00  4.2607089944402637e-01 -3.5351804093684776e-02 0.0000000000000000e+00  -5.1470622684868355e-07 7.4956703523223430e-08 0.0000000000000000e+00  2.2461068421671851e-01 1.4981002895420915e-04 0.0000000000000000e+00  -9.3341964962220610e-07 -1.4529931510379842e-09 0.0000000000000000e+00  1.9789413330483321e-01 8.8617280003326637e-04 0.0000000000000000e+00  3.1159086247658524e-01 -5.3265469244622436e-02 0.0000000000000000e+00  2.3434965037500152e-01 1.3594959871663176e-02 0.0000000000000000e+00  1.2572397441191666e-01 7.1204054664958980e-02 0.0000000000000000e+00  2.3127930659538437e-01 1.4848184328724914e-02 0.0000000000000000e+00  2.0878448098744662e-01 2.4428689463193601e-02 0.0000000000000000e+00  1.4761051173819587e-01 7.4077397176535109e-02 0.0000000000000000e+00  4.5649249997665853e-01 -1.3471098578836146e-02 0.0000000000000000e+00  7.3980501466686374e-02 3.1600848621052106e-02 0.0000000000000000e+00  -2.2481429127209858e-07 -7.9081371047425693e-08 0.0000000000000000e+00  1.4420649346188968e-01 -2.1014362753802520e-05 0.0000000000000000e+00  -1.6311142262091668e-06 -4.6154979305520816e-10 0.0000000000000000e+00  -1.2803557095240976e-06 8.3353960659522786e-09 0.0000000000000000e+00  1.8124769746108123e-06 3.2764312555440773e-07 0.0000000000000000e+00  2.2390040103951417e-01 9.6808897839048003e-03 0.0000000000000000e+00  -1.9071380240184196e-06 -2.4998582273960234e-08 0.0000000000000000e+00  4.0371786578497265e-01 4.2550697977453207e-02 0.0000000000000000e+00  3.7410208047538424e-01 7.6888629249073540e-02 0.0000000000000000e+00  1.5337147855177155e-01 1.4973788048423556e-04 0.0000000000000000e+00  3.4358226356781213e-01 1.3203212957067079e-02 0.0000000000000000e+00  -1.0444277938037648e-06 -2.0962138764816499e-08 0.0000000000000000e+00  -7.2582691245113706e-08 -6.1471705829131246e-09 0.0000000000000000e+00  -3.0132865452215108e-07 9.4598536191396673e-08 0.0000000000000000e+00  1.5836702364176700e-01 -3.6339260010574546e-05 0.0000000000000000e+00  1.0714246565721759e-01 5.4802754675506047e-03 0.0000000000000000e+00  -3.2070470667080153e-07 -9.3775167876962262e-08 0.0000000000000000e+00  1.4485120531012169e-01 -2.5495435870277926e-02 0.0000000000000000e+00  1.5511070433466234e-01 1.4903719432253518e-01 0.0000000000000000e+00  3.9624960425661648e-01 -3.3940560624402462e-02 0.0000000000000000e+00  1.8055848049611423e-06 -1.2877698180323004e-07 0.0000000000000000e+00  1.1273132672803063e-01 4.8842067685656729e-02 0.0000000000000000e+00  2.3408314194654148e-01 5.7370805602183078e-03 0.0000000000000000e+00  1.6010109027752897e-01 -1.5598051905709997e-02 0.0000000000000000e+00  -2.9018968236667548e-06 4.6872084377583508e-07 0.0000000000000000e+00  4.0648368573696107e-03 6.0378167668741203e-03 0.0000000000000000e+00  2.2303369230507750e-01 2.5589529806766200e-03 0.0000000000000000e+00  2.9864878150354307e-01 -9.4160270539794810e-02 0.0000000000000000e+00  2.6742707973914109e-01 -6.8623837614915251e-02 0.0000000000000000e+00  1.5600793771832133e-01 1.6486309174314790e-03 0.0000000000000000e+00  1.7948773610613208e-01 -8.0687485968311379e-02 0.0000000000000000e+00  2.3836729972544665e-01 2.4649038211541692e-02 0.0000000000000000e+00  5.7106624332602517e-02 2.0226118631854442e-02 0.0000000000000000e+00  1.4797026310491582e-01 1.8769200750245539e-03 0.0000000000000000e+00  2.6199839417549838e-02 1.1372038065374925e-02 0.0000000000000000e+00  2.1196347485678957e-01 7.5221197368958333e-03 0.0000000000000000e+00  3.5493116998135496e-02 1.6136035037773201e-02 0.0000000000000000e+00  1.0152572337549735e-01 -1.9908603886642003e-02 0.0000000000000000e+00  -9.4771920473133888e-07 -1.1477772599008083e-07 0.0000000000000000e+00  -2.1719330487265693e-07 -5.6619601593970044e-08 0.0000000000000000e+00  -7.6291460557066502e-07 3.8223837549472515e-07 0.0000000000000000e+00  3.5852845917277160e-01 -4.6791664796984253e-02 0.0000000000000000e+00  7.8042684217632746e-02 3.1207128845128707e-02 0.0000000000000000e+00  -2.2349165135871074e-06 -1.0085323498286143e-07 0.0000000000000000e+00  -1.1980493371761868e-06 -7.1521947723555174e-08 0.0000000000000000e+00  1.4636564926172863e-01 2.4443393409110032e-03 0.0000000000000000e+00  2.1474890456692811e-01 5.0118673976628678e-04 0.0000000000000000e+00  -7.1670172254545719e-07 -1.5242511184406576e-09 0.0000000000000000e+00  -1.0395980032218003e-06 9.8890919199313052e-08 0.0000000000000000e+00  -1.3908275433656486e-06 -2.0453264591326585e-07 0.0000000000000000e+00  -1.3748294976540739e-07 -1.1330224008483573e-09 0.0000000000000000e+00  -9.8317540270585065e-08 3.2273936941701184e-10 0.0000000000000000e+00  3.7432792511244435e-07 -2.0316218088395207e-09 0.0000000000000000e+00  -2.1866408011688984e-06 -2.6468038701812967e-07 0.0000000000000000e+00  1.7249149244885503e-06 -6.4900267021616482e-07 0.0000000000000000e+00  -3.2311051140395921e-07 -1.1166533765829890e-07 0.0000000000000000e+00  1.5066710978848803e-06 -2.9539519463630703e-07 0.0000000000000000e+00  1.7367216566698652e-07 -1.3477285301039350e-08 0.0000000000000000e+00  -8.9624740491804819e-07 7.1469755343877961e-10 0.0000000000000000e+00  -3.0605490972934956e-07 2.0409458478433739e-10 0.0000000000000000e+00  2.5864161954176953e-02 1.4739709821105737e-02 0.0000000000000000e+00  8.7156952027477391e-02 3.1720586910883907e-03 0.0000000000000000e+00  1.6488050660165751e-01 -2.1716055732091236e-02 0.0000000000000000e+00  1.4025939399371470e-01 9.3306288174430834e-04 0.0000000000000000e+00  2.9173909165826406e-01 7.6101749013914990e-02 0.0000000000000000e+00  3.3694086599306267e-01 5.3591104308992416e-02 0.0000000000000000e+00  3.1541158397177033e-01 2.6290038816203246e-02 0.0000000000000000e+00  1.4928588261784026e-01 -9.4525058378286858e-06 0.0000000000000000e+00  2.2482428937530460e-01 4.8644862685113359e-03 0.0000000000000000e+00  2.7426050642168509e-01 -5.0628917974798411e-02 0.0000000000000000e+00  9.3005033579708948e-02 8.4404893518076410e-03 0.0000000000000000e+00  2.2494309811441870e-01 -3.8328491141033045e-05 0.0000000000000000e+00  2.2539344046081064e-01 -4.8855467756658526e-05 0.0000000000000000e+00  2.1628989749885827e-01 -4.5191961203813119e-05 0.0000000000000000e+00  2.2273963210901115e-01 2.5114082235842241e-05 0.0000000000000000e+00  1.3280838876347015e-01 3.4783829931371881e-06 0.0000000000000000e+00  1.4136653870275254e-01 -1.4818969997206380e-05 0.0000000000000000e+00  1.9862544622522893e-01 1.8943802355244557e-01 0.0000000000000000e+00  4.3068080385806888e-02 4.8522256717839267e-02 0.0000000000000000e+00  8.7227783230429137e-02 -6.9382242808738552e-03 0.0000000000000000e+00  2.2002196574526617e-01 -5.0050360721562289e-03 0.0000000000000000e+00  1.8423688454869924e-01 4.3220867463294272e-03 0.0000000000000000e+00  2.2175475074941695e-01 2.2319527775051589e-03 0.0000000000000000e+00  2.6241727370601975e-01 -2.0203940664590695e-02 0.0000000000000000e+00  2.1385864541687097e-01 -4.3566052080624314e-05 0.0000000000000000e+00  1.2915130702385444e-01 7.0130307796086623e-03 0.0000000000000000e+00  2.2587464317480052e-01 1.1107381077214391e-02 0.0000000000000000e+00  3.2295540164857178e-01 -9.2038870881098550e-02 0.0000000000000000e+00  1.3681359311914607e-01 1.7010511584747006e-04 0.0000000000000000e+00  2.1661292535706902e-01 5.7326752131673980e-04 0.0000000000000000e+00  1.3427174786249568e-01 -5.6326234938923751e-06 0.0000000000000000e+00  1.6290071153882665e-01 7.8172620676101784e-02 0.0000000000000000e+00  2.4624817270127236e-01 1.2984623790815863e-01 0.0000000000000000e+00  2.1942559135953080e-01 3.0957287260392114e-02 0.0000000000000000e+00  1.0938229720263733e-01 -1.3665858192893525e-02 0.0000000000000000e+00  3.1436983169186528e-01 -7.5108586676702380e-02 0.0000000000000000e+00  1.9579605299497577e-01 -2.5809768260863990e-02 0.0000000000000000e+00  3.9242292119177380e-01 1.8076921459092763e-02 0.0000000000000000e+00  2.1273769962644848e-01 2.0959845156968155e-02 0.0000000000000000e+00  1.8447217696324203e-01 1.8003562833157159e-02 0.0000000000000000e+00  3.4053758272398532e-01 1.8259203055414897e-01 0.0000000000000000e+00  2.7694143605846455e-01 3.6143655245314772e-02 0.0000000000000000e+00  2.3165732827217406e-01 7.2512604939055411e-02 0.0000000000000000e+00  2.2542907125343367e-01 4.5991731872904891e-04 0.0000000000000000e+00  2.0036784018366102e-01 -3.6420521163487637e-05 0.0000000000000000e+00  2.1776320263327939e-01 -1.6363663920422568e-05 0.0000000000000000e+00  2.9851992749025125e-01 -3.5689469550893790e-02 0.0000000000000000e+00  1.2566949413654743e-01 2.5583697695786483e-02 0.0000000000000000e+00  1.1799018586166095e-01 3.0318405771222567e-03 0.0000000000000000e+00  2.0965142944477388e-01 2.1413148820857757e-02 0.0000000000000000e+00  1.5937804211268650e-01 4.9164025417839666e-02 0.0000000000000000e+00  2.2411534501616567e-01 1.0694033285678846e-02 0.0000000000000000e+00  1.4775399398182867e-01 3.8709206617288431e-03 0.0000000000000000e+00  8.1470860252117486e-02 -4.7222038010236798e-02 0.0000000000000000e+00  4.6326291066327135e-01 4.2718113654730605e-02 0.0000000000000000e+00  1.2895021983880883e-01 -5.0687578958952671e-02 0.0000000000000000e+00  3.4664456381002595e-01 -3.4804419616957766e-02 0.0000000000000000e+00  2.0478271723818869e-01 -1.8923462466062917e-05 0.0000000000000000e+00  2.3616489846531727e-01 -1.3758172976608434e-02 0.0000000000000000e+00  2.0034188685243162e-01 5.7263275186711727e-03 0.0000000000000000e+00  2.1552545157982603e-01 1.3898161511564731e-02 0.0000000000000000e+00  2.0670243459464321e-01 -4.9730778207965176e-02 0.0000000000000000e+00  -8.3804506318273274e-04 9.9616839325334817e-03 0.0000000000000000e+00  1.0595458732663852e-01 2.7236178711959210e-04 0.0000000000000000e+00  6.5250851828741033e-02 -1.9883501102833278e-02 0.0000000000000000e+00  9.8349534511670778e-02 2.2978737720083683e-02 0.0000000000000000e+00  6.2746757447325524e-02 1.7636257491551115e-02 0.0000000000000000e+00  1.9951556621665534e-01 -9.8640659526636853e-06 0.0000000000000000e+00  1.1323495135686619e-01 -2.0156963198194409e-05 0.0000000000000000e+00  4.0327068239063879e-01 -4.0044140007244482e-02 0.0000000000000000e+00  2.1802736096735506e-01 1.2062555373308047e-03 0.0000000000000000e+00  2.0653193763804106e-01 4.5854908440513086e-05 0.0000000000000000e+00  3.5785431645238980e-02 8.8171541869822759e-08 0.0000000000000000e+00  7.4675920767153778e-02 9.4387326532950361e-03 0.0000000000000000e+00  1.5903814303465769e-01 4.2041098742572822e-02 0.0000000000000000e+00  2.2109130384467446e-01 1.8271727157264457e-05 0.0000000000000000e+00  2.0503969778973730e-01 2.5273827129567859e-03 0.0000000000000000e+00  1.4229835491861606e-01 -1.1169617207345967e-02 0.0000000000000000e+00  3.0211521972060024e-01 -4.9788685711722000e-02 0.0000000000000000e+00  3.8093709618346255e-01 3.5648873372530712e-02 0.0000000000000000e+00  1.2933275988493642e-01 2.6214127990577623e-03 0.0000000000000000e+00  1.0396718651509548e-01 2.3912590203682728e-04 0.0000000000000000e+00  1.1631083760119282e-01 -1.4813488137869796e-05 0.0000000000000000e+00  -6.4370479565772423e-03 1.2907381808762945e-02 0.0000000000000000e+00  3.3356379870039382e-01 2.5579274895976309e-08 0.0000000000000000e+00  9.0597271879838404e-02 5.9988211168821425e-03 0.0000000000000000e+00  3.9026768717636373e-01 3.2858699425115760e-03 0.0000000000000000e+00  1.2054551805981095e-01 -2.5694001894720138e-05 0.0000000000000000e+00  2.6789007379082225e-01 -5.9900799636659875e-02 0.0000000000000000e+00  1.1852650419461379e-01 -2.7565576996137127e-08 0.0000000000000000e+00  2.1782235195449171e-01 -1.2476125713703011e-05 0.0000000000000000e+00  1.1624289229141910e-01 1.8622757525552964e-06 0.0000000000000000e+00  2.1733315320681920e-01 -3.5845122116239245e-08 0.0000000000000000e+00  1.1642038573777973e-01 2.8491913091592010e-05 0.0000000000000000e+00  1.8897031238108972e-01 1.4981438828541083e-02 0.0000000000000000e+00  2.2235905686651455e-01 -2.8507365185032191e-05 0.0000000000000000e+00  1.0242945291263188e-01 -1.5718457832144848e-02 0.0000000000000000e+00  1.0275331052475699e-01 -1.3622710016290948e-03 0.0000000000000000e+00  2.0721334902836380e-01 -1.0167913079537808e-02 0.0000000000000000e+00  -2.0085498953659922e-02 -3.3321282202039000e-03 0.0000000000000000e+00  3.1131830166413055e-01 -1.6313583755532258e-02 0.0000000000000000e+00  2.8514441708625654e-01 -1.6868422455633580e-02 0.0000000000000000e+00  4.0894629265153831e-01 -4.5136859433172818e-02 0.0000000000000000e+00  1.0899360364689695e-01 1.2946606922762242e-03 0.0000000000000000e+00  2.8106547109395835e-01 -3.1617231825345100e-02 0.0000000000000000e+00  2.7998035856362113e-01 -1.7128965508189018e-02 0.0000000000000000e+00  1.9374822195569588e-01 -3.5084751652478050e-05 0.0000000000000000e+00  2.4422972589625275e-01 -9.0714537554165267e-02 0.0000000000000000e+00  8.8425666043088463e-02 -8.1583490951332876e-06 0.0000000000000000e+00  1.7603106894500498e-01 -1.1309506727919406e-02 0.0000000000000000e+00  2.8374462