<?xml version="1.0"?>
<VTKFile type="UnstructuredGrid"  version="0.1"  >
<UnstructuredGrid>
<Piece  NumberOfPoints="1404" NumberOfCells="2604">
<Points>
<DataArray  type="Float64"  NumberOfComponents="3"  format="ascii">0 0.41 0  0 0 0  2.2 0 0  2.2 0.41 0  0.2353553390593274 0.2353553390593274 0  0.25 0.2 0  0.2353553390593274 0.1646446609406726 0  0.2 0.15 0  0.1646446609406726 0.1646446609406726 0  0.15 0.2 0  0.1646446609406726 0.2353553390593274 0  0.2 0.25 0  0.6923879532511287 0.188268343236509 0  0.7 0.15 0  0.6923879532511287 0.1117316567634909 0  0.6707106781186547 0.07928932188134523 0  0.6382683432365089 0.05761204674887133 0  0.6 0.04999999999999999 0  0.5617316567634909 0.05761204674887134 0  0.5292893218813453 0.07928932188134524 0  0.5076120467488713 0.111731656763491 0  0.5 0.15 0  0.5076120467488713 0.188268343236509 0  0.5292893218813453 0.2207106781186547 0  0.561731656763491 0.2423879532511287 0  0.6 0.25 0  0.6382683432365089 0.2423879532511287 0  0.6707106781186547 0.2207106781186547 0  1.1 0 0  0 0.205 0  1.1 0.41 0  0.55 0 0  0.55 0.41 0  0.275 0 0  0.8250000000000001 0 0  0.275 0.41 0  0.8250000000000001 0.41 0  0.6875 0 0  0.61875 0 0  1.65 0.41 0  1.65 0 0  1.375 0 0  1.375 0.41 0  1.925 0 0  1.925 0.41 0  1.5125 0.205 0  1.7875 0.205 0  0.9625000000000001 0.205 0  1.2375 0.205 0  2.2 0.205 0  1.99375 0.2152743902439024 0  0.4125 0.41 0  2.0625 0 0  2.0625 0.41 0  2.2 0.3075 0  1.7875 0.41 0  1.375 0.1486128048780488 0  1.5125 0 0  1.7875 0 0  1.5125 0.41 0  0.9625000000000001 0.41 0  0.4125 0 0  0.1375 0 0  0.1375 0.41 0  0.6875 0.41 0  0.9625000000000001 0 0  1.2375 0 0  1.1 0.1486128048780488 0  1.2375 0.41 0  1.65 0.1486128048780487 0  0.823495464168302 0.2603780552348366 0  0.3738707794507017 0.2720196349488618 0  0.3662291281331582 0.1311456406657909 0  1.676715909090909 0.2793064024390244 0  1.126715909090909 0.2793064024390244 0  1.348284090909091 0.2793064024390244 0  0.8287581077665108 0.1302150898054257 0  1.894702181800738 0.1282910975492754 0  2.092797818199262 0.1282910975492754 0  1.85625 0.3075 0  0 0.3075 0  0 0.1025 0  2.099172119769978 0.25625 0  0.4752414543992246 0.3180372603390748 0  1.99375 0.08395950269330846 0  1.459960956013612 0.3075 0  1.569025960719943 0.2986889805672169 0  1.03125 0.3278689922742084 0  1.959375 0.3126371951219512 0  1.749222215368287 0.1025 0  1.275777784631713 0.1025 0  0.9228016959331474 0.3075 0  1.000777784631713 0.1025 0  2.2 0.1025 0  1.225938124459196 0.3075 0  1.550777784631713 0.1025 0  1.44375 0.07430640243902442 0  1.16875 0.07430640243902439 0  0.7562500000000001 0.3358727844323386 0  0.89375 0 0  1.899250267340833 0.2229966846119207 0  0.61875 0.41 0  1.766482954545455 0.2934032012195123 0  1.046078563095834 0.2389031808701145 0  1.421109702350723 0.2261157654379721 0  0.07567171807980319 0.25625 0  0.2511897295290552 0.3235829392832554 0  0.07655002503762308 0.1488653460959645 0  0.1377245246847496 0.3206030474919778 0  0.6694099692696568 0.3242771941727899 0  0.9168971191497528 0.1295727156104653 0  0.7562500000000001 0 0  2.118919042110979 0.3422084711244843 0  2.13125 0 0  0.06875000000000001 0 0  1.30625 0.41 0  1.597888256393107 0.2173787389261347 0  0.34375 0.41 0  0.2493272016354703 0.08091360081773515 0  0.5588896233436766 0.3264056208677571 0  1.829299675393195 0.07400700849299596 0  0.1334079128307869 0.08523463035786674 0  1.71875 0.41 0  0.06875000000000001 0.41 0  1.16875 0.41 0  2.038220665644273 0.332420740103091 0  0.8810647413215221 0.2027360103977071 0  0.34375 0 0  0.7453891198966415 0.2471459041008237 0  0.42112093004955 0.1988123139090554 0  0.8314023090855964 0.3351170841770613 0  0.89375 0.41 0  0.7906250000000001 0.06615386481594063 0  1.452769549894695 0.1548122580621249 0  1.369219062229598 0.07430640243902442 0  1.30625 0 0  1.07420695807087 0.07430640243902439 0  1.720943423819132 0.1714577452753128 0  1.157188124459196 0.205 0  1.304056576180868 0.1714577452753128 0  1.67579304192913 0.07430640243902437 0  1.209670467133757 0.136210026696477 0  0.4312800784902823 0.08036147352247747 0  0.8723959680194693 0.07066860609690805 0  1.025335513626278 0.1700681449722324 0  0.7945632284247136 0.1940204203251442 0  0.378125 0.3452261501101892 0  0.3307109909790086 0.2037165635083759 0  0.3009701032039409 0.2702970083403109 0  0.20625 0.41 0  1.58125 0 0  0.4812500000000001 0 0  0.9838963872396855 0.2722244191167347 0  0.06772484939107212 0.3260067317374387 0  0.20625 0 0  1.58125 0.41 0  1.631724228912893 0.3381867502687533 0  1.825608881788174 0.14499488549201 0  1.85625 0 0  1.44375 0 0  1.44375 0.41 0  1.85625 0.41 0  2.13125 0.41 0  0.7562500000000001 0.41 0  0.4812500000000001 0.41 0  1.16875 0 0  1.03125 0.41 0  1.03125 0 0  1.71875 0 0  1.99375 0 0  1.99375 0.41 0  0.9408708167433545 0.0651989315768642 0  1.340625 0.3489494290853124 0  1.134375 0.3489494290853123 0  1.700180620188976 0.3438659752031281 0  0.29668452290037 0.1318471691375986 0  0.3175441051360096 0.06496934809856265 0  0.06509151636162461 0.08140814015999148 0  2.135782184673599 0.07126652247502523 0  1.668441847249787 0.2129203728327609 0  1.295782514339747 0.2378437748815763 0  1.409375 0.3520314716057996 0  2.129248544730567 0.1906135162504124 0  2.060771381434487 0.1989445750470348 0  2.013252586573865 0.1496169464686054 0  1.942766402200229 0.1734448904596831 0  1.895522487186454 0.06076163953489683 0  2.069553871656643 0.06605731020975725 0  0.4670911801404742 0.2498408582391372 0  0.7622743084658112 0.1264100838268133 0  1.274680914880868 0.3520219391081363 0  0.3148669572599245 0.3331753056385887 0  1.614713220494657 0.09473434380863296 0  1.72990325744076 0.2380068107952482 0  1.356580098625191 0.2120393231351682 0  2.034370752044885 0.2668681600792073 0  1.51768709249349 0.3426260931494756 0  1.561883724969884 0.1650446847858835 0  1.197344062229598 0.2523725417393646 0  1.804085235518364 0.3468178408964637 0  1.817887819205233 0.2589243285818559 0  1.905897727272727 0.3485060975609756 0  0.7296439733931823 0.06337466644369745 0  0.4250935971865949 0.1394919578475796 0  0.3773030136511669 0.05130372097998036 0  1.192836486056382 0.3562350748565544 0  1.1029124365364 0.226143510831178 0  1.28257088594801 0.2944411014911587 0  0.1905185804731426 0.06029880676029167 0  1.474860187679412 0.2504218616229368 0  1.406767003493824 0.2829282258560709 0  0.5209826960981064 0.2830664557824064 0  0.5131119502780163 0.3617405848213254 0  0.1948220106098172 0.3081993407644811 0  1.845656689180403 0.1998310418452388 0  2.144958525570388 0.2909790873294231 0  2.2 0.15375 0  0.8833025251326762 0.2625402923007629 0  0.171875 0.3653875762360952 0  1.57794966442982 0.3540357145964566 0  0.446875 0.366068291212731 0  0.4272051715206439 0.2891929346190664 0  1.508991196088596 0.1421783375065625 0  1.50436820029908 0.06143401634903343 0  1.223857000523521 0.08235548624535324 0  0.6137904613287555 0.3066826366281556 0  1.153316824384777 0.1289850171317838 0  0.9751573703656133 0.327632618473408 0  2.148922302309752 0.1258841779285271 0  0.9281250000000001 0.3643758685795699 0  1.621993280276081 0.2841214267927899 0  1.550118654119087 0.2461998729100966 0  1.327182649291491 0.1216967252533594 0  0.9939955742738924 0.04663549843168518 0  1.753125 0.04556020050186112 0  1.271875 0.04556020050186116 0  0.9734326767716519 0.1506854560854393 0  0.103125 0.3675775577080512 0  1.94956388244759 0.1180512551534177 0  1.949997712993411 0.04965831614304109 0  0.717433898748555 0.295596016333797 0  1.771961817615021 0.1530278789497521 0  1.909246823951428 0.2812757146784527 0  0 0.35875 0  1.050632804931928 0.1226269704412814 0  0.05695108326502596 0.2024009637347154 0  1.948575539857022 0.2445328248721197 0  1.697271520964565 0.1233917627620729 0  1.065625 0.3689344961371042 0  1.085849084308977 0.3170853572226867 0  0.1015495998772944 0.04226029099983852 0  1.577403511714593 0.05463601888079143 0  1.751571320346033 0.3651102912045228 0  2.2 0.35875 0  0.7441773632462837 0.1786786606458751 0  0 0.05125 0  1.466879772203159 0.3611261772912453 0  0.6282230348858767 0.3577675483994025 0  1.990280163552011 0.3564754268533217 0  1.17471064520912 0.2990917256188288 0  0 0.25625 0  2.2 0.25625 0  2.2 0.05125 0  0 0.15375 0  1.853978576207987 0.35875 0  1.515638456102889 0.2882700110184686 0  2.150453692751374 0.2387066338105111 0  1.323782677156475 0.04897634338873398 0  1.409375 0.03715320121951221 0  1.406484531114799 0.1087852750766809 0  1.134375 0.03715320121951219 0  0.721875 0.3729363922161693 0  0.7941695928236929 0.3696489254637395 0  0.7934827162619036 0.3013409431456604 0  1.627401732573545 0.04552157221025036 0  0.9352049974617431 0.2507047965699472 0  0.8763260682738339 0.3611103317460093 0  2.045405893604797 0.1105340662939892 0  1.255408269734577 0.1577307500159216 0  2.028125 0.03707597992059326 0  1.003030137506755 0.3689344961371042 0  1.248258025468107 0.2565907092181813 0  1.203125 0.03661323374043041 0  0.4800125512335631 0.0549472816999725 0  2.072662025974815 0.2975086504196739 0  0.240625 0.3729825336867542 0  1.113252391110535 0.10238286244357 0  1.071052763974265 0.1885202618768825 0  0.8738809401657862 0.3106483608284829 0  0.6786819423003397 0.2677558482644021 0  1.887722846421017 0.1760882698830035 0  1.472640588990488 0.1118278026240017 0  0.5843750000000001 0.41 0  1.865937103925594 0.2604137786483804 0  1.463913572748262 0.2030442564990043 0  1.376426316059077 0.3186741374914345 0  0.1038643885363755 0.2162701735320032 0  0.1769473813227781 0.1070849728467114 0  0.458787839809176 0.171541653775316 0  0.240625 0 0  0.04179569703428024 0.2877217852556549 0  0.1258346557601885 0.2699740073054968 0  1.722140693354707 0.282908100935778 0  0.41206179117512 0.2448172567039922 0  0.3702471778075604 0.2265217604228704 0  0.3714881805374215 0.1786967818665642 0  1.77397096061971 0.2481483237422926 0  2.105123889160691 0.03743885948498647 0  1.001138337938679 0.229719337663998 0  1.051242910646791 0.2854826559431138 0  1.395420985247586 0.18
[...]
<PointData  Vectors="f_37"> 
<DataArray  type="Float64"  Name="f_37"  NumberOfComponents="3" format="ascii">2.8796354220253063e-06 3.6408632168082856e-06 0.0000000000000000e+00  -2.7743578205431717e-06 -1.9402942009187622e-06 0.0000000000000000e+00  -5.3278688877516960e-07 -4.7203773747322122e-08 0.0000000000000000e+00  -6.5668778346662531e-07 -8.2208973812687614e-08 0.0000000000000000e+00  7.7677066876061829e-06 5.5779475063048020e-06 0.0000000000000000e+00  1.1411324543867707e-05 -1.3536606589082476e-07 0.0000000000000000e+00  1.2287830126528079e-05 -2.9660428725045506e-06 0.0000000000000000e+00  7.7984372141557527e-06 -1.0378550160445776e-05 0.0000000000000000e+00  -1.9321118272506996e-05 3.6826418942317129e-06 0.0000000000000000e+00  6.1583894120526045e-07 1.0015949978397794e-05 0.0000000000000000e+00  -6.6596559450664842e-06 -4.3052107197622902e-06 0.0000000000000000e+00  -1.1334660195042068e-05 5.7778399633471118e-06 0.0000000000000000e+00  6.0596984040382252e-06 1.1812973711791506e-05 0.0000000000000000e+00  7.0331757699323617e-06 7.3173628865230851e-06 0.0000000000000000e+00  1.0253629524279044e-05 9.3137149393896457e-06 0.0000000000000000e+00  2.6271091955893454e-05 1.0210742456363034e-05 0.0000000000000000e+00  1.2161658282764610e-05 -9.1476372496566371e-06 0.0000000000000000e+00  3.9286728700832196e-01 9.2242217661456030e-02 0.0000000000000000e+00  -2.5078763743714535e-05 -1.0854726321947346e-05 0.0000000000000000e+00  -3.6351874629203750e-05 2.3631019815119774e-06 0.0000000000000000e+00  -5.2128070296373206e-06 9.5065057489616006e-06 0.0000000000000000e+00  2.7342077300062743e-06 9.6458743084329810e-06 0.0000000000000000e+00  7.1322471134529019e-06 5.4741096127375679e-06 0.0000000000000000e+00  6.2616630051113027e-06 -1.3743207532322131e-06 0.0000000000000000e+00  -1.8109064108474690e-06 -6.7889775337907951e-07 0.0000000000000000e+00  -8.4120144367265454e-06 6.7113553196633929e-06 0.0000000000000000e+00  -7.2558203431631731e-06 1.4486551839016658e-05 0.0000000000000000e+00  6.0719234267433946e-06 1.7072134432701653e-05 0.0000000000000000e+00  -4.7300168991362657e-07 8.4779659923911116e-08 0.0000000000000000e+00  1.6583692778750972e-01 2.4668688606702950e-06 0.0000000000000000e+00  -1.0756324192313377e-06 -2.0809850022941144e-08 0.0000000000000000e+00  -1.4093853086840969e-05 -1.1170384258925743e-05 0.0000000000000000e+00  -4.8112536846877805e-07 -2.6495541481402174e-07 0.0000000000000000e+00  -3.3299037721618106e-06 1.2194333532766675e-07 0.0000000000000000e+00  1.0932202364606317e-07 5.4440393158837322e-07 0.0000000000000000e+00  -3.2723217330669655e-06 3.1494797333099793e-07 0.0000000000000000e+00  -4.4491144054720260e-06 -1.0795289097023132e-07 0.0000000000000000e+00  1.1942058513685100e-05 2.9698578924791503e-06 0.0000000000000000e+00  -2.0889656564378074e-06 -7.0032992053966697e-06 0.0000000000000000e+00  -1.1146346837376384e-06 4.3778438439259293e-08 0.0000000000000000e+00  -1.9477149950825606e-06 1.4686187550916625e-08 0.0000000000000000e+00  -8.4020555630601803e-07 6.6170617497145901e-09 0.0000000000000000e+00  -2.3469319879774182e-07 5.1491274624556887e-08 0.0000000000000000e+00  -4.0757210021417205e-07 1.1659467661240557e-08 0.0000000000000000e+00  3.8496504204212274e-07 -2.9744860688549299e-08 0.0000000000000000e+00  1.7820150163118820e-01 -1.3178789490437092e-04 0.0000000000000000e+00  1.7820134843881055e-01 -8.2584677581962693e-06 0.0000000000000000e+00  1.7696792604721701e-01 -1.3911532727717649e-02 0.0000000000000000e+00  1.7819507165470189e-01 -1.3143116847469029e-03 0.0000000000000000e+00  1.7820114603564455e-01 -1.8208992493738533e-05 0.0000000000000000e+00  1.7820050139964441e-01 -1.2667403368854920e-05 0.0000000000000000e+00  -1.2110628376223137e-06 -7.7698126399669458e-08 0.0000000000000000e+00  2.2609000820000093e-07 9.5975212318562235e-08 0.0000000000000000e+00  -4.1596747686730042e-07 4.7799765144000907e-08 0.0000000000000000e+00  1.7819044769767625e-01 -4.6264774141505040e-05 0.0000000000000000e+00  -8.7632140256505155e-07 5.5965553326384775e-09 0.0000000000000000e+00  1.7802170493375247e-01 -3.5738996630887667e-04 0.0000000000000000e+00  -1.3465872092737147e-06 2.5229360064299164e-08 0.0000000000000000e+00  -1.3322390862161804e-06 -9.2434196768564479e-09 0.0000000000000000e+00  -8.0670319358879460e-07 -5.2356946126209954e-08 0.0000000000000000e+00  -9.7768255369415038e-07 -5.2470730436294648e-08 0.0000000000000000e+00  -5.6213521569582939e-06 4.4810369983464802e-07 0.0000000000000000e+00  -3.1897833537480313e-06 -2.3616951329570213e-06 0.0000000000000000e+00  -4.8017459380070038e-06 -2.3624608100267513e-07 0.0000000000000000e+00  -5.6033878645131051e-06 3.5583269492927295e-08 0.0000000000000000e+00  1.2689261040470134e-07 6.5440381864881997e-08 0.0000000000000000e+00  1.2895555858612509e-06 -2.0385388188700787e-08 0.0000000000000000e+00  1.7618171589251094e-01 -3.6804654738610337e-03 0.0000000000000000e+00  -1.6711794442520685e-08 -3.8319056639061767e-08 0.0000000000000000e+00  1.7817693394857356e-01 -3.6951383844789821e-05 0.0000000000000000e+00  1.9700661887466978e-01 -5.2625512147860182e-02 0.0000000000000000e+00  1.8621751016990931e-01 3.6113157797810130e-02 0.0000000000000000e+00  1.7686300199438826e-01 5.2727892119714841e-02 0.0000000000000000e+00  1.7820611595191299e-01 -2.3139040659778004e-05 0.0000000000000000e+00  1.8019471969724335e-01 -2.7831938578992505e-03 0.0000000000000000e+00  1.7851435180416050e-01 -4.0161472704475801e-04 0.0000000000000000e+00  1.4298291393142956e-01 -1.8903003932537670e-02 0.0000000000000000e+00  1.7819188885753218e-01 3.0680180305356133e-06 0.0000000000000000e+00  1.7821747928995540e-01 -2.8781312831888084e-05 0.0000000000000000e+00  1.7818496078149540e-01 -4.5550126562993658e-06 0.0000000000000000e+00  7.5238815526749700e-02 3.4183016290128417e-06 0.0000000000000000e+00  2.7319323171800303e-01 -8.5239180822550496e-07 0.0000000000000000e+00  1.7820729007093192e-01 -2.4037536557296336e-05 0.0000000000000000e+00  2.6668520898820081e-01 6.1579253096168671e-02 0.0000000000000000e+00  1.7802135035489106e-01 -3.3712295568685959e-05 0.0000000000000000e+00  1.7831811417846913e-01 -1.2424140291955607e-04 0.0000000000000000e+00  1.7823392083400980e-01 -4.9909071802317265e-05 0.0000000000000000e+00  1.8478540850625866e-01 -4.0461216828850599e-03 0.0000000000000000e+00  1.7814404182318008e-01 6.5316328622688333e-06 0.0000000000000000e+00  1.7815269652041588e-01 -8.5974534418215672e-06 0.0000000000000000e+00  1.7743599937849294e-01 -5.9568830174598067e-04 0.0000000000000000e+00  1.9385412235127744e-01 -1.4348943676915808e-02 0.0000000000000000e+00  1.7072127756753941e-01 -5.7083407582788296e-03 0.0000000000000000e+00  1.7814683727326150e-01 -5.8604533435629487e-05 0.0000000000000000e+00  1.7927501209793700e-01 -9.2257338931529972e-04 0.0000000000000000e+00  1.7807020808792712e-01 -6.9240679213953901e-05 0.0000000000000000e+00  1.7762035153135747e-01 -8.4064208599241396e-05 0.0000000000000000e+00  1.7570730652843985e-01 -1.0128105794282292e-03 0.0000000000000000e+00  2.6924114858263076e-01 -4.2985897784694908e-02 0.0000000000000000e+00  3.1042844192468990e-07 1.8412118351649945e-07 0.0000000000000000e+00  1.7821538895867681e-01 -9.7168812200888649e-06 0.0000000000000000e+00  -1.2710240839615147e-06 -4.3366201398038984e-07 0.0000000000000000e+00  1.7819537116068096e-01 -1.7098358772008611e-05 0.0000000000000000e+00  1.7992525596276007e-01 -6.6237014303372581e-03 0.0000000000000000e+00  1.7825266511936089e-01 -2.6636646555244070e-04 0.0000000000000000e+00  1.2085787175541285e-01 1.4581762168968884e-01 0.0000000000000000e+00  2.3084550613300117e-01 -9.8593775630331990e-03 0.0000000000000000e+00  1.9239341097809518e-01 9.1642471488527610e-02 0.0000000000000000e+00  1.7855180263177764e-01 7.7348238272329450e-02 0.0000000000000000e+00  3.5730320510279856e-01 -5.6192257982957593e-02 0.0000000000000000e+00  1.6488301052391000e-01 -1.3211817727785671e-02 0.0000000000000000e+00  6.5317576249853792e-06 2.5480419027740857e-07 0.0000000000000000e+00  1.7710110306783633e-01 -8.4837795674293933e-06 0.0000000000000000e+00  -1.7353746267206732e-06 -1.0675172554642505e-07 0.0000000000000000e+00  2.1705482706990040e-06 -1.2974628978988960e-06 0.0000000000000000e+00  2.0567733898974130e-07 -8.6445103937586468e-08 0.0000000000000000e+00  1.7819852530313310e-01 -5.3264069929131872e-05 0.0000000000000000e+00  -4.7941194567053225e-06 1.3485931038192942e-07 0.0000000000000000e+00  2.9977429896241825e-01 4.1639845960458610e-02 0.0000000000000000e+00  3.5574986390619351e-01 4.4382659246562532e-02 0.0000000000000000e+00  1.7775350775090118e-01 -3.6765039775779788e-05 0.0000000000000000e+00  2.9729877004148691e-01 4.4619563916290864e-02 0.0000000000000000e+00  -1.1063626169625956e-06 -4.3688079036893310e-08 0.0000000000000000e+00  -5.5514723081499088e-06 1.3546764811105101e-06 0.0000000000000000e+00  -4.1716000063587331e-07 5.5031559275572985e-09 0.0000000000000000e+00  1.7790568347640651e-01 -2.8594429765849192e-06 0.0000000000000000e+00  1.7232938502094616e-01 -2.8853717231841280e-02 0.0000000000000000e+00  -4.1164222590188656e-06 -6.3287084506064404e-08 0.0000000000000000e+00  2.1432152939113516e-01 -1.2950830470377822e-01 0.0000000000000000e+00  1.5191402082062833e-01 7.5261403162505972e-02 0.0000000000000000e+00  2.2272408376267469e-01 -2.3752005065697190e-02 0.0000000000000000e+00  -1.0221717196965850e-07 -1.4976581818360810e-08 0.0000000000000000e+00  1.5245512277658646e-01 1.3150330611045754e-02 0.0000000000000000e+00  1.7810542231660598e-01 -1.8702718093582598e-04 0.0000000000000000e+00  1.7710322746159032e-01 -1.6460634071828551e-04 0.0000000000000000e+00  4.2948784029460628e-07 1.2448960991689912e-08 0.0000000000000000e+00  1.7320906212696213e-01 -2.2223869647549810e-03 0.0000000000000000e+00  1.7818789821307984e-01 -2.3238816521958269e-05 0.0000000000000000e+00  1.7816475192389408e-01 -2.6078500949103106e-03 0.0000000000000000e+00  1.7799415061448398e-01 -7.1360554528828943e-04 0.0000000000000000e+00  1.7773541270814538e-01 1.7414565711211158e-05 0.0000000000000000e+00  1.7726896762562572e-01 -1.3681710926810129e-03 0.0000000000000000e+00  1.7382210831554026e-01 -1.3488961856568239e-02 0.0000000000000000e+00  1.5633987021919149e-01 -5.9783385483468893e-03 0.0000000000000000e+00  1.7550218965651729e-01 -7.4645548296249789e-03 0.0000000000000000e+00  1.4573211481388226e-01 -6.7756994837930490e-02 0.0000000000000000e+00  2.1891540553134106e-01 1.6012923623044698e-02 0.0000000000000000e+00  1.2996220387356622e-01 6.0179143201052429e-02 0.0000000000000000e+00  1.6830721026752277e-01 -2.4348777797483501e-02 0.0000000000000000e+00  -2.8152488658711305e-06 5.6235701750439258e-08 0.0000000000000000e+00  -2.1280381568116367e-07 -4.8193564055835341e-08 0.0000000000000000e+00  -1.4803541888329354e-05 2.0851610378503825e-06 0.0000000000000000e+00  1.8423657684214090e-01 -1.0380511871657790e-02 0.0000000000000000e+00  9.2407795911443866e-02 8.5600773926507057e-02 0.0000000000000000e+00  -7.6497649152180228e-06 -3.2572273716702083e-07 0.0000000000000000e+00  -5.9856886583104319e-07 1.4941372447656338e-08 0.0000000000000000e+00  1.7769228221442329e-01 -5.2041755331869458e-05 0.0000000000000000e+00  1.7818964448996075e-01 -1.7520031045165935e-06 0.0000000000000000e+00  -7.8889018282794309e-07 4.4006942535965206e-08 0.0000000000000000e+00  -1.3007481567459968e-06 5.9161521280145692e-08 0.0000000000000000e+00  -1.0398968453692031e-06 -2.1191381009182867e-09 0.0000000000000000e+00  2.5559879754745673e-07 1.0144792236834716e-08 0.0000000000000000e+00  2.4194060348988852e-07 -4.1978272338781807e-08 0.0000000000000000e+00  -4.3114920623543168e-06 -4.9704565657124313e-08 0.0000000000000000e+00  -2.8394290370793298e-06 -5.2446786822784787e-07 0.0000000000000000e+00  -3.2819018360373491e-07 -7.6740726400535435e-08 0.0000000000000000e+00  2.3626713341783022e-07 2.4727540946060562e-08 0.0000000000000000e+00  1.4128724917674759e-06 1.3857144183124985e-08 0.0000000000000000e+00  4.6700107060356000e-07 -1.8804968439361586e-08 0.0000000000000000e+00  -1.2666881088373346e-06 7.3614053991575844e-08 0.0000000000000000e+00  -1.5032114189672261e-08 -7.0927624763304185e-09 0.0000000000000000e+00  1.6321778834342221e-01 -4.8415273037174513e-03 0.0000000000000000e+00  1.7672102208483897e-01 -4.9587593175566803e-05 0.0000000000000000e+00  1.7892999682817490e-01 -1.0697336084836120e-03 0.0000000000000000e+00  1.7708158285863904e-01 -3.1968389665402751e-05 0.0000000000000000e+00  2.2381175851251103e-01 1.0893682358919533e-01 0.0000000000000000e+00  2.3726560380341713e-01 3.1243841902615404e-02 0.0000000000000000e+00  3.1206626048651820e-01 4.6298888897550197e-02 0.0000000000000000e+00  1.7760582641304043e-01 -6.7986781120908917e-05 0.0000000000000000e+00  1.7819546174369907e-01 -3.2542141196908340e-05 0.0000000000000000e+00  1.7842475741394700e-01 -7.6721493589189556e-04 0.0000000000000000e+00  1.7554482265179608e-01 -8.0535843515526430e-05 0.0000000000000000e+00  1.7821501546392240e-01 -2.2046020635591711e-05 0.0000000000000000e+00  1.7820832136705991e-01 -2.0566417586949129e-05 0.0000000000000000e+00  1.7821089319501929e-01 -1.4946731078765801e-05 0.0000000000000000e+00  1.7821339124512320e-01 -1.5410233245003796e-05 0.0000000000000000e+00  1.7612671770797300e-01 -1.2189100789224148e-04 0.0000000000000000e+00  1.7689909687306424e-01 -9.7143738576722623e-05 0.0000000000000000e+00  2.1003088724489305e-01 1.1653320448303284e-01 0.0000000000000000e+00  8.4343507210298291e-02 -2.8914459779011943e-03 0.0000000000000000e+00  1.7646503244155182e-01 -1.9746539322596247e-04 0.0000000000000000e+00  2.1000956537452548e-01 -1.7552095496921475e-03 0.0000000000000000e+00  1.7807251662813106e-01 -4.3538762323270687e-05 0.0000000000000000e+00  1.7820205184587898e-01 -2.2183176369175924e-05 0.0000000000000000e+00  1.7823362034083970e-01 -4.6627267184652416e-04 0.0000000000000000e+00  1.7821233081502119e-01 -1.5709376659766502e-05 0.0000000000000000e+00  1.7702563165858351e-01 -4.8635268509091058e-05 0.0000000000000000e+00  1.7818262944293645e-01 -8.0145054979928758e-05 0.0000000000000000e+00  1.7892612420905787e-01 -1.7145303959665498e-03 0.0000000000000000e+00  1.7643006771942490e-01 3.4629242042695135e-05 0.0000000000000000e+00  1.7821279495594197e-01 -8.3194619803437889e-06 0.0000000000000000e+00  1.7622419188464147e-01 3.8152869916427159e-05 0.0000000000000000e+00  1.8720179300873560e-01 9.1984922932394075e-02 0.0000000000000000e+00  1.3727015488293512e-01 3.4870349259246688e-02 0.0000000000000000e+00  2.0021015883680668e-01 7.8276177291128225e-03 0.0000000000000000e+00  1.7587131426845790e-01 -5.1250097665141452e-04 0.0000000000000000e+00  1.7886132016624659e-01 -4.1138009710773964e-03 0.0000000000000000e+00  1.7880235286066726e-01 -6.5872535199186380e-04 0.0000000000000000e+00  3.0928494689033381e-01 1.0763501710406040e-02 0.0000000000000000e+00  1.7826588027921988e-01 -1.5853332387329267e-04 0.0000000000000000e+00  1.7838560209975823e-01 -2.3314053246334442e-04 0.0000000000000000e+00  3.1188073109030945e-01 1.1757729624294497e-01 0.0000000000000000e+00  2.9727034612501441e-01 2.5594180317291562e-02 0.0000000000000000e+00  2.4963077864641486e-01 4.0815866081628530e-02 0.0000000000000000e+00  1.7820551395220391e-01 -2.2914389592955207e-06 0.0000000000000000e+00  1.7819731013711357e-01 -3.3356292793062504e-05 0.0000000000000000e+00  1.7819677821640975e-01 -2.4521427520200676e-05 0.0000000000000000e+00  1.8967737589604478e-01 -2.8265931203321791e-02 0.0000000000000000e+00  1.8770375469797276e-01 1.8914009211004085e-02 0.0000000000000000e+00  1.7472535328289474e-01 7.4225191150691645e-05 0.0000000000000000e+00  2.4528470976707387e-01 1.9481750785657958e-02 0.0000000000000000e+00  2.1799246844205292e-01 5.9611564297203025e-02 0.0000000000000000e+00  1.7812888380212566e-01 -1.0529364165175355e-04 0.0000000000000000e+00  1.7595997573412808e-01 -6.3196026777068758e-05 0.0000000000000000e+00  1.7673604868190479e-01 -7.3188393472146983e-04 0.0000000000000000e+00  4.0830759262403155e-01 -8.0140409307839795e-03 0.0000000000000000e+00  1.7655905368456520e-01 -2.1201063045643209e-03 0.0000000000000000e+00  1.8925519900864624e-01 -6.8380997936822851e-03 0.0000000000000000e+00  1.7820030591560046e-01 -3.6989456289438078e-05 0.0000000000000000e+00  1.8672507544968819e-01 -4.5616422553134512e-03 0.0000000000000000e+00  1.7820841465949125e-01 -3.6216144276883023e-05 0.0000000000000000e+00  1.7822243717807296e-01 -8.3127411850416908e-05 0.0000000000000000e+00  1.7780648371080710e-01 -4.5970308724527806e-04 0.0000000000000000e+00  1.6070697915566320e-01 -2.0069126429206811e-03 0.0000000000000000e+00  1.6853291081370184e-01 -1.0923747207766666e-05 0.0000000000000000e+00  1.6769010368861742e-01 -1.4145606321967145e-04 0.0000000000000000e+00  1.7192406383446518e-01 -1.0366440467994049e-02 0.0000000000000000e+00  1.1964969174083320e-01 3.2443707945895663e-02 0.0000000000000000e+00  1.7818849811803619e-01 -4.1606501064636742e-06 0.0000000000000000e+00  1.7195938514660933e-01 -6.2011711399119395e-05 0.0000000000000000e+00  2.9730961535298844e-01 -9.7611908767733485e-02 0.0000000000000000e+00  1.7819028896705366e-01 -8.9320835494452945e-06 0.0000000000000000e+00  1.7820465669334598e-01 -1.2634238090777623e-05 0.0000000000000000e+00  3.5788764811114537e-02 3.0255002392571941e-06 0.0000000000000000e+00  1.7398588382440899e-01 -4.6827882748744975e-03 0.0000000000000000e+00  1.4946988346632117e-01 1.0107286637259102e-01 0.0000000000000000e+00  1.7821565032751482e-01 -7.4806522605007102e-06 0.0000000000000000e+00  1.7817309544006152e-01 -1.6743451701892008e-05 0.0000000000000000e+00  1.6854645568957635e-01 -1.1295704011900999e-03 0.0000000000000000e+00  1.8206995167751547e-01 -2.8495564664370362e-03 0.0000000000000000e+00  3.5312889068669345e-01 4.9901823855408152e-02 0.0000000000000000e+00  1.7428343221827974e-01 -5.0062037090443695e-05 0.0000000000000000e+00  1.6780825539709235e-01 -1.3987892230783574e-05 0.0000000000000000e+00  1.7312965994150031e-01 -8.9432387661180372e-05 0.0000000000000000e+00  7.6550712892405309e-02 -9.1680532126658873e-02 0.0000000000000000e+00  3.3356416645358772e-01 -2.9664569002468722e-06 0.0000000000000000e+00  1.7152379096125164e-01 -6.8303582831547577e-05 0.0000000000000000e+00  3.5537955627983359e-01 -1.4347551807774578e-02 0.0000000000000000e+00  1.7390415059372361e-01 3.5732308280078625e-05 0.0000000000000000e+00  1.7980625357303251e-01 -1.5705873036852966e-03 0.0000000000000000e+00  1.1853126974070909e-01 3.4397562708612483e-06 0.0000000000000000e+00  1.7821949279617907e-01 -1.7797423048754664e-05 0.0000000000000000e+00  1.7286352106388339e-01 -2.3420601416033064e-04 0.0000000000000000e+00  2.1733468563310002e-01 1.2579417400332969e-06 0.0000000000000000e+00  1.7269260538136214e-01 2.4499398697704836e-05 0.0000000000000000e+00  1.7827437529731019e-01 -9.1422597247537823e-05 0.0000000000000000e+00  1.7820389085918414e-01 -1.7238554067866386e-05 0.0000000000000000e+00  1.7065606000302963e-01 -1.4899717146171128e-04 0.0000000000000000e+00  1.5757362590719437e-01 -8.9018786433105765e-05 0.0000000000000000e+00  1.7794806628479293e-01 -2.2080758802437851e-04 0.0000000000000000e+00  1.5524549806554955e-01 -5.4722924431784622e-04 0.0000000000000000e+00  2.6163054923855900e-01 -1.7691687535126833e-02 0.0000000000000000e+00  2.2227178463670633e-01 -1.2333502077162443e-02 0.0000000000000000e+00  2.3032008546485158e-01 -5.3386587786558908e-02 0.0000000000000000e+00  1.6858184064206372e-01 -8.0508248152127138e-05 0.0000000000000000e+00  1.8375583192818329e-01 -1.7627704687449914e-02 0.0000000000000000e+00  2.0138237402355830e-01 -7.9421794418119297e-03 0.0000000000000000e+00  1.7821120152570896e-01 -3.7867231573540383e-06 0.0000000000000000e+00  1.7775670830544940e-01 -1.0335153478037830e-03 0.0000000000000000e+00  1.5727161861321345e-01 1.5015386561121263e-04 0.0000000000000000e+00  1.7237719903439200e-01 -1.7588909615001362e-03 0