<?xml version="1.0"?>
<VTKFile type="UnstructuredGrid"  version="0.1"  >
<UnstructuredGrid>
<Piece  NumberOfPoints="1404" NumberOfCells="2604">
<Points>
<DataArray  type="Float64"  NumberOfComponents="3"  format="ascii">0 0.41 0  0 0 0  2.2 0 0  2.2 0.41 0  0.2353553390593274 0.2353553390593274 0  0.25 0.2 0  0.2353553390593274 0.1646446609406726 0  0.2 0.15 0  0.1646446609406726 0.1646446609406726 0  0.15 0.2 0  0.1646446609406726 0.2353553390593274 0  0.2 0.25 0  0.6923879532511287 0.188268343236509 0  0.7 0.15 0  0.6923879532511287 0.1117316567634909 0  0.6707106781186547 0.07928932188134523 0  0.6382683432365089 0.05761204674887133 0  0.6 0.04999999999999999 0  0.5617316567634909 0.05761204674887134 0  0.5292893218813453 0.07928932188134524 0  0.5076120467488713 0.111731656763491 0  0.5 0.15 0  0.5076120467488713 0.188268343236509 0  0.5292893218813453 0.2207106781186547 0  0.561731656763491 0.2423879532511287 0  0.6 0.25 0  0.6382683432365089 0.2423879532511287 0  0.6707106781186547 0.2207106781186547 0  1.1 0 0  0 0.205 0  1.1 0.41 0  0.55 0 0  0.55 0.41 0  0.275 0 0  0.8250000000000001 0 0  0.275 0.41 0  0.8250000000000001 0.41 0  0.6875 0 0  0.61875 0 0  1.65 0.41 0  1.65 0 0  1.375 0 0  1.375 0.41 0  1.925 0 0  1.925 0.41 0  1.5125 0.205 0  1.7875 0.205 0  0.9625000000000001 0.205 0  1.2375 0.205 0  2.2 0.205 0  1.99375 0.2152743902439024 0  0.4125 0.41 0  2.0625 0 0  2.0625 0.41 0  2.2 0.3075 0  1.7875 0.41 0  1.375 0.1486128048780488 0  1.5125 0 0  1.7875 0 0  1.5125 0.41 0  0.9625000000000001 0.41 0  0.4125 0 0  0.1375 0 0  0.1375 0.41 0  0.6875 0.41 0  0.9625000000000001 0 0  1.2375 0 0  1.1 0.1486128048780488 0  1.2375 0.41 0  1.65 0.1486128048780487 0  0.823495464168302 0.2603780552348366 0  0.3738707794507017 0.2720196349488618 0  0.3662291281331582 0.1311456406657909 0  1.676715909090909 0.2793064024390244 0  1.126715909090909 0.2793064024390244 0  1.348284090909091 0.2793064024390244 0  0.8287581077665108 0.1302150898054257 0  1.894702181800738 0.1282910975492754 0  2.092797818199262 0.1282910975492754 0  1.85625 0.3075 0  0 0.3075 0  0 0.1025 0  2.099172119769978 0.25625 0  0.4752414543992246 0.3180372603390748 0  1.99375 0.08395950269330846 0  1.459960956013612 0.3075 0  1.569025960719943 0.2986889805672169 0  1.03125 0.3278689922742084 0  1.959375 0.3126371951219512 0  1.749222215368287 0.1025 0  1.275777784631713 0.1025 0  0.9228016959331474 0.3075 0  1.000777784631713 0.1025 0  2.2 0.1025 0  1.225938124459196 0.3075 0  1.550777784631713 0.1025 0  1.44375 0.07430640243902442 0  1.16875 0.07430640243902439 0  0.7562500000000001 0.3358727844323386 0  0.89375 0 0  1.899250267340833 0.2229966846119207 0  0.61875 0.41 0  1.766482954545455 0.2934032012195123 0  1.046078563095834 0.2389031808701145 0  1.421109702350723 0.2261157654379721 0  0.07567171807980319 0.25625 0  0.2511897295290552 0.3235829392832554 0  0.07655002503762308 0.1488653460959645 0  0.1377245246847496 0.3206030474919778 0  0.6694099692696568 0.3242771941727899 0  0.9168971191497528 0.1295727156104653 0  0.7562500000000001 0 0  2.118919042110979 0.3422084711244843 0  2.13125 0 0  0.06875000000000001 0 0  1.30625 0.41 0  1.597888256393107 0.2173787389261347 0  0.34375 0.41 0  0.2493272016354703 0.08091360081773515 0  0.5588896233436766 0.3264056208677571 0  1.829299675393195 0.07400700849299596 0  0.1334079128307869 0.08523463035786674 0  1.71875 0.41 0  0.06875000000000001 0.41 0  1.16875 0.41 0  2.038220665644273 0.332420740103091 0  0.8810647413215221 0.2027360103977071 0  0.34375 0 0  0.7453891198966415 0.2471459041008237 0  0.42112093004955 0.1988123139090554 0  0.8314023090855964 0.3351170841770613 0  0.89375 0.41 0  0.7906250000000001 0.06615386481594063 0  1.452769549894695 0.1548122580621249 0  1.369219062229598 0.07430640243902442 0  1.30625 0 0  1.07420695807087 0.07430640243902439 0  1.720943423819132 0.1714577452753128 0  1.157188124459196 0.205 0  1.304056576180868 0.1714577452753128 0  1.67579304192913 0.07430640243902437 0  1.209670467133757 0.136210026696477 0  0.4312800784902823 0.08036147352247747 0  0.8723959680194693 0.07066860609690805 0  1.025335513626278 0.1700681449722324 0  0.7945632284247136 0.1940204203251442 0  0.378125 0.3452261501101892 0  0.3307109909790086 0.2037165635083759 0  0.3009701032039409 0.2702970083403109 0  0.20625 0.41 0  1.58125 0 0  0.4812500000000001 0 0  0.9838963872396855 0.2722244191167347 0  0.06772484939107212 0.3260067317374387 0  0.20625 0 0  1.58125 0.41 0  1.631724228912893 0.3381867502687533 0  1.825608881788174 0.14499488549201 0  1.85625 0 0  1.44375 0 0  1.44375 0.41 0  1.85625 0.41 0  2.13125 0.41 0  0.7562500000000001 0.41 0  0.4812500000000001 0.41 0  1.16875 0 0  1.03125 0.41 0  1.03125 0 0  1.71875 0 0  1.99375 0 0  1.99375 0.41 0  0.9408708167433545 0.0651989315768642 0  1.340625 0.3489494290853124 0  1.134375 0.3489494290853123 0  1.700180620188976 0.3438659752031281 0  0.29668452290037 0.1318471691375986 0  0.3175441051360096 0.06496934809856265 0  0.06509151636162461 0.08140814015999148 0  2.135782184673599 0.07126652247502523 0  1.668441847249787 0.2129203728327609 0  1.295782514339747 0.2378437748815763 0  1.409375 0.3520314716057996 0  2.129248544730567 0.1906135162504124 0  2.060771381434487 0.1989445750470348 0  2.013252586573865 0.1496169464686054 0  1.942766402200229 0.1734448904596831 0  1.895522487186454 0.06076163953489683 0  2.069553871656643 0.06605731020975725 0  0.4670911801404742 0.2498408582391372 0  0.7622743084658112 0.1264100838268133 0  1.274680914880868 0.3520219391081363 0  0.3148669572599245 0.3331753056385887 0  1.614713220494657 0.09473434380863296 0  1.72990325744076 0.2380068107952482 0  1.356580098625191 0.2120393231351682 0  2.034370752044885 0.2668681600792073 0  1.51768709249349 0.3426260931494756 0  1.561883724969884 0.1650446847858835 0  1.197344062229598 0.2523725417393646 0  1.804085235518364 0.3468178408964637 0  1.817887819205233 0.2589243285818559 0  1.905897727272727 0.3485060975609756 0  0.7296439733931823 0.06337466644369745 0  0.4250935971865949 0.1394919578475796 0  0.3773030136511669 0.05130372097998036 0  1.192836486056382 0.3562350748565544 0  1.1029124365364 0.226143510831178 0  1.28257088594801 0.2944411014911587 0  0.1905185804731426 0.06029880676029167 0  1.474860187679412 0.2504218616229368 0  1.406767003493824 0.2829282258560709 0  0.5209826960981064 0.2830664557824064 0  0.5131119502780163 0.3617405848213254 0  0.1948220106098172 0.3081993407644811 0  1.845656689180403 0.1998310418452388 0  2.144958525570388 0.2909790873294231 0  2.2 0.15375 0  0.8833025251326762 0.2625402923007629 0  0.171875 0.3653875762360952 0  1.57794966442982 0.3540357145964566 0  0.446875 0.366068291212731 0  0.4272051715206439 0.2891929346190664 0  1.508991196088596 0.1421783375065625 0  1.50436820029908 0.06143401634903343 0  1.223857000523521 0.08235548624535324 0  0.6137904613287555 0.3066826366281556 0  1.153316824384777 0.1289850171317838 0  0.9751573703656133 0.327632618473408 0  2.148922302309752 0.1258841779285271 0  0.9281250000000001 0.3643758685795699 0  1.621993280276081 0.2841214267927899 0  1.550118654119087 0.2461998729100966 0  1.327182649291491 0.1216967252533594 0  0.9939955742738924 0.04663549843168518 0  1.753125 0.04556020050186112 0  1.271875 0.04556020050186116 0  0.9734326767716519 0.1506854560854393 0  0.103125 0.3675775577080512 0  1.94956388244759 0.1180512551534177 0  1.949997712993411 0.04965831614304109 0  0.717433898748555 0.295596016333797 0  1.771961817615021 0.1530278789497521 0  1.909246823951428 0.2812757146784527 0  0 0.35875 0  1.050632804931928 0.1226269704412814 0  0.05695108326502596 0.2024009637347154 0  1.948575539857022 0.2445328248721197 0  1.697271520964565 0.1233917627620729 0  1.065625 0.3689344961371042 0  1.085849084308977 0.3170853572226867 0  0.1015495998772944 0.04226029099983852 0  1.577403511714593 0.05463601888079143 0  1.751571320346033 0.3651102912045228 0  2.2 0.35875 0  0.7441773632462837 0.1786786606458751 0  0 0.05125 0  1.466879772203159 0.3611261772912453 0  0.6282230348858767 0.3577675483994025 0  1.990280163552011 0.3564754268533217 0  1.17471064520912 0.2990917256188288 0  0 0.25625 0  2.2 0.25625 0  2.2 0.05125 0  0 0.15375 0  1.853978576207987 0.35875 0  1.515638456102889 0.2882700110184686 0  2.150453692751374 0.2387066338105111 0  1.323782677156475 0.04897634338873398 0  1.409375 0.03715320121951221 0  1.406484531114799 0.1087852750766809 0  1.134375 0.03715320121951219 0  0.721875 0.3729363922161693 0  0.7941695928236929 0.3696489254637395 0  0.7934827162619036 0.3013409431456604 0  1.627401732573545 0.04552157221025036 0  0.9352049974617431 0.2507047965699472 0  0.8763260682738339 0.3611103317460093 0  2.045405893604797 0.1105340662939892 0  1.255408269734577 0.1577307500159216 0  2.028125 0.03707597992059326 0  1.003030137506755 0.3689344961371042 0  1.248258025468107 0.2565907092181813 0  1.203125 0.03661323374043041 0  0.4800125512335631 0.0549472816999725 0  2.072662025974815 0.2975086504196739 0  0.240625 0.3729825336867542 0  1.113252391110535 0.10238286244357 0  1.071052763974265 0.1885202618768825 0  0.8738809401657862 0.3106483608284829 0  0.6786819423003397 0.2677558482644021 0  1.887722846421017 0.1760882698830035 0  1.472640588990488 0.1118278026240017 0  0.5843750000000001 0.41 0  1.865937103925594 0.2604137786483804 0  1.463913572748262 0.2030442564990043 0  1.376426316059077 0.3186741374914345 0  0.1038643885363755 0.2162701735320032 0  0.1769473813227781 0.1070849728467114 0  0.458787839809176 0.171541653775316 0  0.240625 0 0  0.04179569703428024 0.2877217852556549 0  0.1258346557601885 0.2699740073054968 0  1.722140693354707 0.282908100935778 0  0.41206179117512 0.2448172567039922 0  0.3702471778075604 0.2265217604228704 0  0.3714881805374215 0.1786967818665642 0  1.77397096061971 0.2481483237422926 0  2.105123889160691 0.03743885948498647 0  1.001138337938679 0.229719337663998 0  1.051242910646791 0.2854826559431138 0  1.395420985247586 0.18
[...]
<PointData  Vectors="f_37"> 
<DataArray  type="Float64"  Name="f_37"  NumberOfComponents="3" format="ascii">3.8456344822928479e-07 2.6018366653433904e-07 0.0000000000000000e+00  -3.9898961403683946e-06 -7.9376086063073062e-07 0.0000000000000000e+00  -1.1758875701226153e-06 4.4419134606492786e-09 0.0000000000000000e+00  -1.4498872744438869e-06 -3.7142157848100030e-09 0.0000000000000000e+00  4.3431156876937249e-06 -2.1200250980797628e-06 0.0000000000000000e+00  3.0548213262765787e-06 -2.0443418370910091e-06 0.0000000000000000e+00  2.5146377902635538e-07 -1.3472053332355658e-06 0.0000000000000000e+00  -1.9300738918484909e-06 2.3797499990365000e-06 0.0000000000000000e+00  8.5465030980680450e-06 -1.8102363397931261e-06 0.0000000000000000e+00  -2.9677092815899979e-06 -7.0370254251862981e-06 0.0000000000000000e+00  -1.7084481106224882e-06 2.1618389292590412e-06 0.0000000000000000e+00  3.7398838663981221e-06 1.4621497746082504e-06 0.0000000000000000e+00  4.6445526672617678e-06 -6.6811975675130172e-06 0.0000000000000000e+00  2.1424195760726643e-06 -1.3192190372577921e-06 0.0000000000000000e+00  9.7987482653390084e-07 8.7498516488160974e-07 0.0000000000000000e+00  4.0353961958641517e-06 1.4116055117789820e-06 0.0000000000000000e+00  6.2942888842768154e-06 9.7837494545412039e-09 0.0000000000000000e+00  3.1974739756509440e-01 8.4800619017006112e-02 0.0000000000000000e+00  -6.0399404075965858e-07 -3.0311554499240663e-06 0.0000000000000000e+00  -5.5573159163509790e-06 -6.1477231402807572e-07 0.0000000000000000e+00  -2.0446439094627652e-06 -1.2544715108533940e-06 0.0000000000000000e+00  2.7311710928415077e-06 7.3673285041203928e-06 0.0000000000000000e+00  5.8470416452955623e-06 5.0747090452478753e-06 0.0000000000000000e+00  3.2997897310772120e-06 -6.0551725966084815e-06 0.0000000000000000e+00  -5.8351092469449103e-06 -5.5655941012558660e-06 0.0000000000000000e+00  -9.6517155928906273e-06 1.7323645706067437e-07 0.0000000000000000e+00  -8.4982097855918766e-06 3.0497745354391146e-06 0.0000000000000000e+00  4.1599599611783817e-06 -2.9563548575209221e-06 0.0000000000000000e+00  -1.2350110422900438e-06 3.6495422705001721e-08 0.0000000000000000e+00  1.6583324455198759e-01 -1.2921550721867970e-06 0.0000000000000000e+00  -1.5986893916991425e-06 -9.2348669378927123e-09 0.0000000000000000e+00  3.2080419427682025e-06 -2.9034092355924972e-06 0.0000000000000000e+00  -2.8068984914275209e-07 -4.6833757146270498e-07 0.0000000000000000e+00  9.0497634904409324e-07 -6.2237914135193880e-07 0.0000000000000000e+00  -1.6481099684373031e-06 -1.2796135530451939e-07 0.0000000000000000e+00  -2.0088287266166505e-07 -3.0056883380788107e-07 0.0000000000000000e+00  -4.3415851061852380e-07 1.7027585877605764e-07 0.0000000000000000e+00  -7.5439709133875417e-07 -1.1459180360160437e-07 0.0000000000000000e+00  -3.5090369595659096e-06 -1.7088647904240133e-06 0.0000000000000000e+00  -1.6082359051680361e-06 7.5969688761671292e-10 0.0000000000000000e+00  -2.1136233002772714e-06 -4.5964106066871171e-09 0.0000000000000000e+00  -1.3393795121424428e-06 -3.3606935583196707e-09 0.0000000000000000e+00  -7.9769878156496190e-07 -3.4583608608291714e-09 0.0000000000000000e+00  -1.0462282209615951e-06 1.9430147764988432e-09 0.0000000000000000e+00  -4.0588611820975192e-07 -3.3607941517453900e-09 0.0000000000000000e+00  1.9325249921305729e-01 -1.0141256849384507e-04 0.0000000000000000e+00  1.9324619201566218e-01 2.5130649393612358e-07 0.0000000000000000e+00  1.9426831191552110e-01 -3.4663884413620040e-02 0.0000000000000000e+00  1.9331626998959778e-01 -2.0281905605643450e-03 0.0000000000000000e+00  1.9325847467458829e-01 -1.9065064358684399e-05 0.0000000000000000e+00  1.9325393023415854e-01 -5.6431517369769177e-06 0.0000000000000000e+00  -3.7736104323219721e-07 5.8405622163943027e-08 0.0000000000000000e+00  -3.1636375399757422e-07 4.5594918150507689e-09 0.0000000000000000e+00  -1.0967857443830266e-06 6.1382581354399905e-09 0.0000000000000000e+00  1.9079056207399464e-01 -1.0038523984524727e-06 0.0000000000000000e+00  -1.4605048324039871e-06 -2.3496357737393714e-09 0.0000000000000000e+00  1.9290756330344064e-01 -3.9073713789352217e-04 0.0000000000000000e+00  -1.9994799188767768e-06 1.1908346444624352e-09 0.0000000000000000e+00  -1.7386719851329112e-06 -1.6622563187483061e-09 0.0000000000000000e+00  -1.2568264455313589e-06 -3.9555904895036787e-09 0.0000000000000000e+00  -2.4051723089759727e-06 -6.0245916990496766e-08 0.0000000000000000e+00  -2.7054626093759526e-06 -2.5642555126575538e-08 0.0000000000000000e+00  2.2005499539676932e-07 2.1749836828069843e-07 0.0000000000000000e+00  -2.5702676376984358e-06 5.8993491325704244e-08 0.0000000000000000e+00  -9.4714849054502233e-07 2.7548244261136762e-08 0.0000000000000000e+00  -2.0744859059365794e-06 1.2556806614422650e-07 0.0000000000000000e+00  4.3149293824858291e-07 -2.3468709237511021e-09 0.0000000000000000e+00  1.8903977801750355e-01 -7.3600461792499893e-03 0.0000000000000000e+00  -5.8351980575624632e-07 -3.4686716580006864e-09 0.0000000000000000e+00  1.9317141323739209e-01 -2.1089771710138237e-05 0.0000000000000000e+00  2.8076208388803647e-01 -1.2007250828040501e-01 0.0000000000000000e+00  1.5183421678926765e-01 3.4882328287228440e-02 0.0000000000000000e+00  2.5578279940767185e-01 1.1023847349578184e-01 0.0000000000000000e+00  1.9294561666882137e-01 -4.0385018911014090e-06 0.0000000000000000e+00  1.9740034511270244e-01 -4.3067558329926018e-03 0.0000000000000000e+00  1.9339998487921614e-01 -4.3482196767347792e-04 0.0000000000000000e+00  9.1526629108253016e-02 -3.1167157154488190e-02 0.0000000000000000e+00  1.9287353187204784e-01 1.8623193073521622e-05 0.0000000000000000e+00  1.9284688730125241e-01 -6.0910554067875545e-06 0.0000000000000000e+00  1.9081862435441793e-01 -3.1929134548098536e-06 0.0000000000000000e+00  7.5234657153212925e-02 1.7073226127244993e-06 0.0000000000000000e+00  2.7319283340076944e-01 -1.1855936771351652e-06 0.0000000000000000e+00  1.9320957405292982e-01 -1.1299690653930010e-05 0.0000000000000000e+00  2.8845311091563997e-01 7.8899998052962106e-02 0.0000000000000000e+00  1.8557946964929736e-01 -2.0917782774240280e-05 0.0000000000000000e+00  1.9094317896771767e-01 -4.9553608845637452e-05 0.0000000000000000e+00  1.9195325049520318e-01 -2.2493237474598176e-05 0.0000000000000000e+00  1.9750687224856822e-01 -4.5713988678590355e-03 0.0000000000000000e+00  1.8985868005252987e-01 -6.2372078280026292e-07 0.0000000000000000e+00  1.9082644264191129e-01 9.5439629780341830e-07 0.0000000000000000e+00  1.8967294179796226e-01 -7.1070994569142276e-04 0.0000000000000000e+00  2.3558543980236130e-01 -2.3627345885547303e-02 0.0000000000000000e+00  1.7351795605766737e-01 -1.3006402416726437e-02 0.0000000000000000e+00  1.9083705553824423e-01 -2.5009299282188340e-05 0.0000000000000000e+00  1.9262609478287041e-01 -1.0497905775518795e-03 0.0000000000000000e+00  1.9065995381310633e-01 -2.1047170556484382e-05 0.0000000000000000e+00  1.7995223088799234e-01 -3.8232427063123386e-05 0.0000000000000000e+00  1.7698060291024614e-01 -1.3461401481087915e-03 0.0000000000000000e+00  3.6541941335364581e-01 -6.8462326335512913e-02 0.0000000000000000e+00  -2.5918801720854349e-06 1.2848811391112096e-07 0.0000000000000000e+00  1.9326438900324017e-01 8.4200666255726104e-07 0.0000000000000000e+00  2.9892319599329802e-08 -1.6680807600873908e-07 0.0000000000000000e+00  1.9225295379334520e-01 2.9728521140122589e-05 0.0000000000000000e+00  1.9904866253609085e-01 -1.3340699978094379e-02 0.0000000000000000e+00  1.9332159666401841e-01 -2.6593529037292728e-04 0.0000000000000000e+00  1.3081028937717332e-01 7.3224145612154221e-02 0.0000000000000000e+00  2.4196088171543084e-01 3.7837583494207535e-03 0.0000000000000000e+00  2.0839099117213966e-01 3.0033226290374339e-02 0.0000000000000000e+00  1.4950213022810996e-01 1.0019329700772441e-01 0.0000000000000000e+00  4.4889203132923738e-01 -4.7987759604846310e-02 0.0000000000000000e+00  1.5820764990092179e-01 -3.3361506301470660e-02 0.0000000000000000e+00  -1.9516649614239996e-07 2.9758913316192447e-07 0.0000000000000000e+00  1.7482371334176450e-01 1.4668413625707228e-05 0.0000000000000000e+00  -2.4104903416878908e-06 -1.4604663930779110e-08 0.0000000000000000e+00  -2.3715097379898160e-07 -7.5694863571263487e-08 0.0000000000000000e+00  -5.3134098712847195e-07 -3.8978816295448259e-09 0.0000000000000000e+00  1.9324984190716540e-01 -3.1360763019092141e-05 0.0000000000000000e+00  -1.6853920558821459e-06 1.9868964566701123e-07 0.0000000000000000e+00  3.8512192731667455e-01 5.7982118083348327e-02 0.0000000000000000e+00  3.9847829117128269e-01 6.0674438741497853e-02 0.0000000000000000e+00  1.7993794748961633e-01 -2.2513018447772199e-05 0.0000000000000000e+00  3.4099879058062194e-01 2.0939943144821841e-02 0.0000000000000000e+00  -1.6851668653643372e-06 2.0187279396504249e-10 0.0000000000000000e+00  1.9050705487004883e-06 1.1196362887725679e-06 0.0000000000000000e+00  -1.0656964133767232e-06 -1.4850013356985110e-09 0.0000000000000000e+00  1.8226264307807385e-01 -3.0550925192329902e-06 0.0000000000000000e+00  1.8372744900583440e-01 -8.1800374644900906e-02 0.0000000000000000e+00  -5.6199470210771498e-07 -1.0540206201082562e-07 0.0000000000000000e+00  2.4094359570038168e-01 -1.0587401411125862e-01 0.0000000000000000e+00  1.5004826233127783e-01 1.4458097667208239e-01 0.0000000000000000e+00  2.7927345790248903e-01 -4.0295900665526324e-02 0.0000000000000000e+00  -1.1062646868253641e-06 -2.7204556807897526e-07 0.0000000000000000e+00  1.3061768043006139e-01 2.9377760871158703e-02 0.0000000000000000e+00  1.9309962098714764e-01 -1.5845941625131608e-04 0.0000000000000000e+00  1.7973536627069892e-01 -1.1680441765677725e-04 0.0000000000000000e+00  -3.0393117890547518e-07 -2.1068911879800788e-10 0.0000000000000000e+00  1.7167674457836296e-01 -3.9517830108438019e-03 0.0000000000000000e+00  1.9322563247452934e-01 -9.2998993026556271e-06 0.0000000000000000e+00  1.9346541576790988e-01 -4.6496541957288433e-03 0.0000000000000000e+00  1.9290946271056028e-01 -9.6318047819791660e-04 0.0000000000000000e+00  1.8007114310616545e-01 -2.1391780131863713e-05 0.0000000000000000e+00  1.9133376016961356e-01 -2.1475348689910852e-03 0.0000000000000000e+00  1.9142509054665310e-01 4.0313210323952107e-03 0.0000000000000000e+00  1.3045683115936232e-01 -1.0634050038273458e-02 0.0000000000000000e+00  1.8802464299634858e-01 -1.7068010610637150e-02 0.0000000000000000e+00  1.0385911797792710e-01 -9.8501065861267237e-02 0.0000000000000000e+00  2.2868756424334069e-01 1.3374111333059975e-02 0.0000000000000000e+00  6.1594159177024412e-02 7.0106248299048102e-02 0.0000000000000000e+00  1.0885263631495232e-01 -1.8086165329052207e-02 0.0000000000000000e+00  -2.7410055477481956e-06 -1.0196627723192823e-06 0.0000000000000000e+00  -1.0091329756169802e-06 -5.3672099138399419e-09 0.0000000000000000e+00  -3.5366739722152543e-06 4.3127302836910895e-07 0.0000000000000000e+00  2.1225815374375237e-01 -2.0273082119507648e-02 0.0000000000000000e+00  7.6840299067547482e-02 3.0120675126686734e-02 0.0000000000000000e+00  -1.7839319078787363e-06 1.8707672861039372e-07 0.0000000000000000e+00  -1.2477538747133772e-06 1.8230934768950493e-09 0.0000000000000000e+00  1.7830176753927271e-01 1.3463881033921245e-05 0.0000000000000000e+00  1.9312119136433287e-01 6.9707893970327632e-07 0.0000000000000000e+00  -1.3100135871629020e-06 1.6074875619950512e-09 0.0000000000000000e+00  -1.6387869961173028e-06 2.2076906225611962e-09 0.0000000000000000e+00  -1.4516669571864583e-06 -3.6617132057647366e-09 0.0000000000000000e+00  -5.1666814166946457e-07 1.7017199216813836e-09 0.0000000000000000e+00  -5.2055287394819746e-07 -1.8363100791449179e-09 0.0000000000000000e+00  2.3039518320419803e-06 4.7877170360379232e-07 0.0000000000000000e+00  -2.8610211023828114e-06 -5.4016526265257358e-07 0.0000000000000000e+00  -1.0079960102624056e-06 9.5645109419592953e-09 0.0000000000000000e+00  -1.0621421299940789e-06 -4.9836703888370312e-08 0.0000000000000000e+00  -1.5081802815460833e-07 6.8637662649100009e-08 0.0000000000000000e+00  -2.2796011799081310e-07 -4.6945257089620019e-10 0.0000000000000000e+00  -1.6530723680368803e-06 4.2082048066762743e-09 0.0000000000000000e+00  -7.5507897095734938e-07 -2.4040043376746227e-09 0.0000000000000000e+00  1.4367124078944921e-01 -1.1016178791874874e-02 0.0000000000000000e+00  1.6815998799190202e-01 -7.9956331242683081e-05 0.0000000000000000e+00  1.7121134055061160e-01 -8.5544615040497422e-04 0.0000000000000000e+00  1.7329673588046843e-01 1.8195986796537717e-06 0.0000000000000000e+00  2.9677228296878094e-01 1.0840282276747268e-01 0.0000000000000000e+00  2.8853716000406632e-01 4.7869973236999118e-02 0.0000000000000000e+00  3.1492766957668505e-01 2.9247061699868911e-02 0.0000000000000000e+00  1.7789824544617869e-01 -5.4000941610449237e-06 0.0000000000000000e+00  1.9325001643599898e-01 -8.5287031056268094e-06 0.0000000000000000e+00  1.9364286388210175e-01 -1.0225968090657354e-03 0.0000000000000000e+00  1.6403952443985936e-01 -1.1682516458582868e-05 0.0000000000000000e+00  1.9326446905306111e-01 -1.1930371996754197e-05 0.0000000000000000e+00  1.9325335447154460e-01 -1.3386235809462741e-05 0.0000000000000000e+00  1.9317054382386911e-01 -1.0151170368652691e-05 0.0000000000000000e+00  1.9324510574737769e-01 -1.4622713121065354e-06 0.0000000000000000e+00  1.6747713537980838e-01 -1.0733454948517737e-05 0.0000000000000000e+00  1.7316208692341220e-01 -1.0145085818058270e-05 0.0000000000000000e+00  2.2117675700942435e-01 1.5822305111541446e-01 0.0000000000000000e+00  1.6849476108137303e-02 1.4746550488994970e-02 0.0000000000000000e+00  1.6461119544440633e-01 -1.2737722481184790e-04 0.0000000000000000e+00  2.3403964205218675e-01 -1.1210953133698241e-02 0.0000000000000000e+00  1.8926329274849066e-01 -9.2761371036369616e-06 0.0000000000000000e+00  1.9324502418684097e-01 -2.0562979078700839e-06 0.0000000000000000e+00  1.9330745774916244e-01 -5.6563462081625612e-04 0.0000000000000000e+00  1.9315803031990830e-01 -3.4702746432260151e-06 0.0000000000000000e+00  1.7441313886291451e-01 3.0137782226722289e-06 0.0000000000000000e+00  1.9321690426458304e-01 -4.8369236256060746e-05 0.0000000000000000e+00  1.9476246020508667e-01 -2.6411068407829019e-03 0.0000000000000000e+00  1.7017292806409232e-01 -1.4165593650414829e-05 0.0000000000000000e+00  1.9319458739029524e-01 -1.2047000181709130e-06 0.0000000000000000e+00  1.6832379564148198e-01 7.7717970436392755e-06 0.0000000000000000e+00  1.5372943407983058e-01 6.0471896598148854e-02 0.0000000000000000e+00  1.7217224975436943e-01 9.5396907288172017e-02 0.0000000000000000e+00  1.9217874227835924e-01 1.6418696755150057e-02 0.0000000000000000e+00  1.5957317558736717e-01 -3.1938645984248333e-04 0.0000000000000000e+00  1.9543346233865488e-01 -7.7928840577393020e-03 0.0000000000000000e+00  1.9322201057440508e-01 -7.2227265134931491e-04 0.0000000000000000e+00  3.8084053430418691e-01 2.6149402844260723e-02 0.0000000000000000e+00  1.9329941464479330e-01 -1.2206296965676166e-04 0.0000000000000000e+00  1.9306318094003952e-01 -2.0555145086100315e-04 0.0000000000000000e+00  3.4388464665659269e-01 1.4559951589196166e-01 0.0000000000000000e+00  3.0780727628130800e-01 3.3837369337880403e-02 0.0000000000000000e+00  2.3501618351232273e-01 8.2442200162558613e-02 0.0000000000000000e+00  1.9324839636994942e-01 6.7146189930089936e-06 0.0000000000000000e+00  1.9249874146085597e-01 -1.7674485769588692e-05 0.0000000000000000e+00  1.9323098757420848e-01 -1.3959047029394715e-05 0.0000000000000000e+00  2.4482839992429850e-01 -7.0551204974373533e-02 0.0000000000000000e+00  1.4979020052490560e-01 3.5685226624404827e-02 0.0000000000000000e+00  1.6118502879648000e-01 6.2310989357566194e-06 0.0000000000000000e+00  2.3555481708473097e-01 2.5324561347998549e-02 0.0000000000000000e+00  2.1982143397768167e-01 7.4112880309041160e-02 0.0000000000000000e+00  1.9304884371451164e-01 -6.8370520512603977e-05 0.0000000000000000e+00  1.6817523780504640e-01 -1.5761908381081547e-05 0.0000000000000000e+00  1.8293570758410987e-01 -8.7237179123084618e-04 0.0000000000000000e+00  4.6164633007719552e-01 1.5524941510637812e-02 0.0000000000000000e+00  1.8962971711078444e-01 -3.7033237170584015e-03 0.0000000000000000e+00  2.0773121030026809e-01 -7.8474260221898379e-03 0.0000000000000000e+00  1.9280057543912998e-01 -1.9465542294966934e-06 0.0000000000000000e+00  1.6099465097945195e-01 -2.2102643472263618e-03 0.0000000000000000e+00  1.9277870810724665e-01 -1.8190767786683098e-05 0.0000000000000000e+00  1.9325149819515855e-01 -5.5781838660569627e-05 0.0000000000000000e+00  1.9197937636419216e-01 -5.2339301339584458e-04 0.0000000000000000e+00  1.3129636533301875e-01 -4.2581420006964034e-03 0.0000000000000000e+00  1.4373925266878668e-01 -5.9100968711113490e-06 0.0000000000000000e+00  1.4320516892636062e-01 -1.2982991824853372e-04 0.0000000000000000e+00  1.7869233049296648e-01 -2.5690625164305165e-02 0.0000000000000000e+00  6.2965940857187694e-02 2.6108437237828127e-02 0.0000000000000000e+00  1.9233228741291983e-01 -4.2847136072971279e-06 0.0000000000000000e+00  1.5135128809341442e-01 4.7340275639402761e-06 0.0000000000000000e+00  4.1246713023346432e-01 -9.5345948992639915e-02 0.0000000000000000e+00  1.9318336797197039e-01 -1.8594115464501517e-06 0.0000000000000000e+00  1.9287169183069933e-01 -7.5464715321379251e-06 0.0000000000000000e+00  3.5785504720310696e-02 1.8412918521141357e-06 0.0000000000000000e+00  1.8328263848839801e-01 -1.0046955946268850e-02 0.0000000000000000e+00  1.6070504781721423e-01 4.4543189429304006e-02 0.0000000000000000e+00  1.9325195683123111e-01 1.8400704807614818e-06 0.0000000000000000e+00  1.9267528890381372e-01 -1.2632212127444642e-05 0.0000000000000000e+00  1.3819106677511361e-01 -5.1187668375556202e-04 0.0000000000000000e+00  1.9642938323192227e-01 -3.5672985534214970e-03 0.0000000000000000e+00  3.7733678347335842e-01 3.8835947696674721e-02 0.0000000000000000e+00  1.5930647988290850e-01 3.3640240964173761e-05 0.0000000000000000e+00  1.4235510550327826e-01 1.8353009277927383e-05 0.0000000000000000e+00  1.5389085011237696e-01 -3.1947596396864077e-06 0.0000000000000000e+00  9.6742519347417007e-03 -7.1024039710444317e-03 0.0000000000000000e+00  3.3356407926378828e-01 -8.5171481729953933e-07 0.0000000000000000e+00  1.4992822760382946e-01 2.6612833772130533e-05 0.0000000000000000e+00  3.9837592400103550e-01 -1.2620911238582048e-02 0.0000000000000000e+00  1.5762167556038845e-01 1.8630200667106229e-05 0.0000000000000000e+00  1.9493711665822980e-01 -2.0582634431338719e-03 0.0000000000000000e+00  1.1852613639988029e-01 3.3561180032371142e-07 0.0000000000000000e+00  1.9320676446171270e-01 -1.2342409621437584e-05 0.0000000000000000e+00  1.5396120085096929e-01 -2.1053591107967918e-05 0.0000000000000000e+00  2.1733329470567350e-01 -1.2491515325135412e-06 0.0000000000000000e+00  1.5394064529345775e-01 -1.5481030671369893e-05 0.0000000000000000e+00  1.9267505054607081e-01 -4.1181423091964164e-05 0.0000000000000000e+00  1.9323893515277363e-01 -9.7834354139798916e-06 0.0000000000000000e+00  1.4974626335938318e-01 -5.5968136950456452e-05 0.0000000000000000e+00  1.2528792320519827e-01 -3.2598462099139324e-07 0.0000000000000000e+00  1.9137102293214819e-01 -1.8456405872656952e-04 0.0000000000000000e+00  1.2300129460019005e-01 -5.2247309009084469e-04 0.0000000000000000e+00  2.6597973768256394e-01 -2.7126588392857507e-02 0.0000000000000000e+00  2.0406997305359065e-01 -1.9926651544098176e-02 0.0000000000000000e+00  3.5222229729133225e-01 -9.8358849174760385e-02 0.0000000000000000e+00  1.4364551078912435e-01 -3.0339889919787942e-05 0.0000000000000000e+00  2.1700018786074030e-01 -4.1913382956342657e-02 0.0000000000000000e+00  1.8352900769666411e-01 -7.2609314625382733e-03 0.0000000000000000e+00  1.9184438308321697e-01 -8.9117651701730264e-06 0.0000000000000000e+00  1.9244961220337603e-01 -1.5207605988052707e-03 0.0000000000000000e+00  1.2515154579806503e-01 6.2932926523750624e-06 0.0000000000000000e+00  1.4132348812316664e-01 -8.0382802447906041e