<?xml version="1.0"?>
<VTKFile type="UnstructuredGrid"  version="0.1"  >
<UnstructuredGrid>
<Piece  NumberOfPoints="1404" NumberOfCells="2604">
<Points>
<DataArray  type="Float64"  NumberOfComponents="3"  format="ascii">0 0.41 0  0 0 0  2.2 0 0  2.2 0.41 0  0.2353553390593274 0.2353553390593274 0  0.25 0.2 0  0.2353553390593274 0.1646446609406726 0  0.2 0.15 0  0.1646446609406726 0.1646446609406726 0  0.15 0.2 0  0.1646446609406726 0.2353553390593274 0  0.2 0.25 0  0.6923879532511287 0.188268343236509 0  0.7 0.15 0  0.6923879532511287 0.1117316567634909 0  0.6707106781186547 0.07928932188134523 0  0.6382683432365089 0.05761204674887133 0  0.6 0.04999999999999999 0  0.5617316567634909 0.05761204674887134 0  0.5292893218813453 0.07928932188134524 0  0.5076120467488713 0.111731656763491 0  0.5 0.15 0  0.5076120467488713 0.188268343236509 0  0.5292893218813453 0.2207106781186547 0  0.561731656763491 0.2423879532511287 0  0.6 0.25 0  0.6382683432365089 0.2423879532511287 0  0.6707106781186547 0.2207106781186547 0  1.1 0 0  0 0.205 0  1.1 0.41 0  0.55 0 0  0.55 0.41 0  0.275 0 0  0.8250000000000001 0 0  0.275 0.41 0  0.8250000000000001 0.41 0  0.6875 0 0  0.61875 0 0  1.65 0.41 0  1.65 0 0  1.375 0 0  1.375 0.41 0  1.925 0 0  1.925 0.41 0  1.5125 0.205 0  1.7875 0.205 0  0.9625000000000001 0.205 0  1.2375 0.205 0  2.2 0.205 0  1.99375 0.2152743902439024 0  0.4125 0.41 0  2.0625 0 0  2.0625 0.41 0  2.2 0.3075 0  1.7875 0.41 0  1.375 0.1486128048780488 0  1.5125 0 0  1.7875 0 0  1.5125 0.41 0  0.9625000000000001 0.41 0  0.4125 0 0  0.1375 0 0  0.1375 0.41 0  0.6875 0.41 0  0.9625000000000001 0 0  1.2375 0 0  1.1 0.1486128048780488 0  1.2375 0.41 0  1.65 0.1486128048780487 0  0.823495464168302 0.2603780552348366 0  0.3738707794507017 0.2720196349488618 0  0.3662291281331582 0.1311456406657909 0  1.676715909090909 0.2793064024390244 0  1.126715909090909 0.2793064024390244 0  1.348284090909091 0.2793064024390244 0  0.8287581077665108 0.1302150898054257 0  1.894702181800738 0.1282910975492754 0  2.092797818199262 0.1282910975492754 0  1.85625 0.3075 0  0 0.3075 0  0 0.1025 0  2.099172119769978 0.25625 0  0.4752414543992246 0.3180372603390748 0  1.99375 0.08395950269330846 0  1.459960956013612 0.3075 0  1.569025960719943 0.2986889805672169 0  1.03125 0.3278689922742084 0  1.959375 0.3126371951219512 0  1.749222215368287 0.1025 0  1.275777784631713 0.1025 0  0.9228016959331474 0.3075 0  1.000777784631713 0.1025 0  2.2 0.1025 0  1.225938124459196 0.3075 0  1.550777784631713 0.1025 0  1.44375 0.07430640243902442 0  1.16875 0.07430640243902439 0  0.7562500000000001 0.3358727844323386 0  0.89375 0 0  1.899250267340833 0.2229966846119207 0  0.61875 0.41 0  1.766482954545455 0.2934032012195123 0  1.046078563095834 0.2389031808701145 0  1.421109702350723 0.2261157654379721 0  0.07567171807980319 0.25625 0  0.2511897295290552 0.3235829392832554 0  0.07655002503762308 0.1488653460959645 0  0.1377245246847496 0.3206030474919778 0  0.6694099692696568 0.3242771941727899 0  0.9168971191497528 0.1295727156104653 0  0.7562500000000001 0 0  2.118919042110979 0.3422084711244843 0  2.13125 0 0  0.06875000000000001 0 0  1.30625 0.41 0  1.597888256393107 0.2173787389261347 0  0.34375 0.41 0  0.2493272016354703 0.08091360081773515 0  0.5588896233436766 0.3264056208677571 0  1.829299675393195 0.07400700849299596 0  0.1334079128307869 0.08523463035786674 0  1.71875 0.41 0  0.06875000000000001 0.41 0  1.16875 0.41 0  2.038220665644273 0.332420740103091 0  0.8810647413215221 0.2027360103977071 0  0.34375 0 0  0.7453891198966415 0.2471459041008237 0  0.42112093004955 0.1988123139090554 0  0.8314023090855964 0.3351170841770613 0  0.89375 0.41 0  0.7906250000000001 0.06615386481594063 0  1.452769549894695 0.1548122580621249 0  1.369219062229598 0.07430640243902442 0  1.30625 0 0  1.07420695807087 0.07430640243902439 0  1.720943423819132 0.1714577452753128 0  1.157188124459196 0.205 0  1.304056576180868 0.1714577452753128 0  1.67579304192913 0.07430640243902437 0  1.209670467133757 0.136210026696477 0  0.4312800784902823 0.08036147352247747 0  0.8723959680194693 0.07066860609690805 0  1.025335513626278 0.1700681449722324 0  0.7945632284247136 0.1940204203251442 0  0.378125 0.3452261501101892 0  0.3307109909790086 0.2037165635083759 0  0.3009701032039409 0.2702970083403109 0  0.20625 0.41 0  1.58125 0 0  0.4812500000000001 0 0  0.9838963872396855 0.2722244191167347 0  0.06772484939107212 0.3260067317374387 0  0.20625 0 0  1.58125 0.41 0  1.631724228912893 0.3381867502687533 0  1.825608881788174 0.14499488549201 0  1.85625 0 0  1.44375 0 0  1.44375 0.41 0  1.85625 0.41 0  2.13125 0.41 0  0.7562500000000001 0.41 0  0.4812500000000001 0.41 0  1.16875 0 0  1.03125 0.41 0  1.03125 0 0  1.71875 0 0  1.99375 0 0  1.99375 0.41 0  0.9408708167433545 0.0651989315768642 0  1.340625 0.3489494290853124 0  1.134375 0.3489494290853123 0  1.700180620188976 0.3438659752031281 0  0.29668452290037 0.1318471691375986 0  0.3175441051360096 0.06496934809856265 0  0.06509151636162461 0.08140814015999148 0  2.135782184673599 0.07126652247502523 0  1.668441847249787 0.2129203728327609 0  1.295782514339747 0.2378437748815763 0  1.409375 0.3520314716057996 0  2.129248544730567 0.1906135162504124 0  2.060771381434487 0.1989445750470348 0  2.013252586573865 0.1496169464686054 0  1.942766402200229 0.1734448904596831 0  1.895522487186454 0.06076163953489683 0  2.069553871656643 0.06605731020975725 0  0.4670911801404742 0.2498408582391372 0  0.7622743084658112 0.1264100838268133 0  1.274680914880868 0.3520219391081363 0  0.3148669572599245 0.3331753056385887 0  1.614713220494657 0.09473434380863296 0  1.72990325744076 0.2380068107952482 0  1.356580098625191 0.2120393231351682 0  2.034370752044885 0.2668681600792073 0  1.51768709249349 0.3426260931494756 0  1.561883724969884 0.1650446847858835 0  1.197344062229598 0.2523725417393646 0  1.804085235518364 0.3468178408964637 0  1.817887819205233 0.2589243285818559 0  1.905897727272727 0.3485060975609756 0  0.7296439733931823 0.06337466644369745 0  0.4250935971865949 0.1394919578475796 0  0.3773030136511669 0.05130372097998036 0  1.192836486056382 0.3562350748565544 0  1.1029124365364 0.226143510831178 0  1.28257088594801 0.2944411014911587 0  0.1905185804731426 0.06029880676029167 0  1.474860187679412 0.2504218616229368 0  1.406767003493824 0.2829282258560709 0  0.5209826960981064 0.2830664557824064 0  0.5131119502780163 0.3617405848213254 0  0.1948220106098172 0.3081993407644811 0  1.845656689180403 0.1998310418452388 0  2.144958525570388 0.2909790873294231 0  2.2 0.15375 0  0.8833025251326762 0.2625402923007629 0  0.171875 0.3653875762360952 0  1.57794966442982 0.3540357145964566 0  0.446875 0.366068291212731 0  0.4272051715206439 0.2891929346190664 0  1.508991196088596 0.1421783375065625 0  1.50436820029908 0.06143401634903343 0  1.223857000523521 0.08235548624535324 0  0.6137904613287555 0.3066826366281556 0  1.153316824384777 0.1289850171317838 0  0.9751573703656133 0.327632618473408 0  2.148922302309752 0.1258841779285271 0  0.9281250000000001 0.3643758685795699 0  1.621993280276081 0.2841214267927899 0  1.550118654119087 0.2461998729100966 0  1.327182649291491 0.1216967252533594 0  0.9939955742738924 0.04663549843168518 0  1.753125 0.04556020050186112 0  1.271875 0.04556020050186116 0  0.9734326767716519 0.1506854560854393 0  0.103125 0.3675775577080512 0  1.94956388244759 0.1180512551534177 0  1.949997712993411 0.04965831614304109 0  0.717433898748555 0.295596016333797 0  1.771961817615021 0.1530278789497521 0  1.909246823951428 0.2812757146784527 0  0 0.35875 0  1.050632804931928 0.1226269704412814 0  0.05695108326502596 0.2024009637347154 0  1.948575539857022 0.2445328248721197 0  1.697271520964565 0.1233917627620729 0  1.065625 0.3689344961371042 0  1.085849084308977 0.3170853572226867 0  0.1015495998772944 0.04226029099983852 0  1.577403511714593 0.05463601888079143 0  1.751571320346033 0.3651102912045228 0  2.2 0.35875 0  0.7441773632462837 0.1786786606458751 0  0 0.05125 0  1.466879772203159 0.3611261772912453 0  0.6282230348858767 0.3577675483994025 0  1.990280163552011 0.3564754268533217 0  1.17471064520912 0.2990917256188288 0  0 0.25625 0  2.2 0.25625 0  2.2 0.05125 0  0 0.15375 0  1.853978576207987 0.35875 0  1.515638456102889 0.2882700110184686 0  2.150453692751374 0.2387066338105111 0  1.323782677156475 0.04897634338873398 0  1.409375 0.03715320121951221 0  1.406484531114799 0.1087852750766809 0  1.134375 0.03715320121951219 0  0.721875 0.3729363922161693 0  0.7941695928236929 0.3696489254637395 0  0.7934827162619036 0.3013409431456604 0  1.627401732573545 0.04552157221025036 0  0.9352049974617431 0.2507047965699472 0  0.8763260682738339 0.3611103317460093 0  2.045405893604797 0.1105340662939892 0  1.255408269734577 0.1577307500159216 0  2.028125 0.03707597992059326 0  1.003030137506755 0.3689344961371042 0  1.248258025468107 0.2565907092181813 0  1.203125 0.03661323374043041 0  0.4800125512335631 0.0549472816999725 0  2.072662025974815 0.2975086504196739 0  0.240625 0.3729825336867542 0  1.113252391110535 0.10238286244357 0  1.071052763974265 0.1885202618768825 0  0.8738809401657862 0.3106483608284829 0  0.6786819423003397 0.2677558482644021 0  1.887722846421017 0.1760882698830035 0  1.472640588990488 0.1118278026240017 0  0.5843750000000001 0.41 0  1.865937103925594 0.2604137786483804 0  1.463913572748262 0.2030442564990043 0  1.376426316059077 0.3186741374914345 0  0.1038643885363755 0.2162701735320032 0  0.1769473813227781 0.1070849728467114 0  0.458787839809176 0.171541653775316 0  0.240625 0 0  0.04179569703428024 0.2877217852556549 0  0.1258346557601885 0.2699740073054968 0  1.722140693354707 0.282908100935778 0  0.41206179117512 0.2448172567039922 0  0.3702471778075604 0.2265217604228704 0  0.3714881805374215 0.1786967818665642 0  1.77397096061971 0.2481483237422926 0  2.105123889160691 0.03743885948498647 0  1.001138337938679 0.229719337663998 0  1.051242910646791 0.2854826559431138 0  1.395420985247586 0.18
[...]
<PointData  Vectors="f_37"> 
<DataArray  type="Float64"  Name="f_37"  NumberOfComponents="3" format="ascii">2.5028172277252659e-07 4.5909890217364129e-08 0.0000000000000000e+00  -4.4507468234338737e-06 -3.5826203044463394e-07 0.0000000000000000e+00  -6.5291869818765580e-07 6.9377149347248601e-10 0.0000000000000000e+00  -8.4642869426637531e-07 1.6415180592357959e-10 0.0000000000000000e+00  -3.4819675784979993e-09 2.9245325992469668e-07 0.0000000000000000e+00  1.5178336529692335e-07 -4.7840171895871876e-08 0.0000000000000000e+00  1.2684996405625710e-07 1.8085296176448302e-07 0.0000000000000000e+00  -9.4392866203862351e-07 -8.7531064753868017e-08 0.0000000000000000e+00  -7.8378312773995836e-07 -1.3074433054010286e-07 0.0000000000000000e+00  1.0798393402253046e-07 -5.1483661505125552e-07 0.0000000000000000e+00  -9.5096284375267631e-07 -5.0526193531529472e-07 0.0000000000000000e+00  -1.0211587950920712e-06 -2.2776876862794304e-07 0.0000000000000000e+00  3.2958845997610827e-07 3.3569001254846024e-07 0.0000000000000000e+00  -3.0504148508505404e-07 -1.3096637843616247e-07 0.0000000000000000e+00  -2.8972769109709610e-07 1.2467212850652253e-07 0.0000000000000000e+00  -9.1369338518310986e-07 -3.2820751354961901e-07 0.0000000000000000e+00  2.2609686519088468e-06 3.1260515478669227e-07 0.0000000000000000e+00  3.4832190170525729e-01 9.6841546215861662e-02 0.0000000000000000e+00  1.4902210005397244e-06 -7.6774036102740234e-08 0.0000000000000000e+00  -1.3124358154590266e-06 3.5212316624283900e-07 0.0000000000000000e+00  -1.3819954628800938e-06 -1.2418394178328177e-07 0.0000000000000000e+00  -1.3371205804915209e-08 -3.1564098441956851e-07 0.0000000000000000e+00  4.0639104572710558e-07 6.4703800579034341e-08 0.0000000000000000e+00  -6.6310670955615700e-07 -1.8446925868503968e-06 0.0000000000000000e+00  -3.2451220181149454e-06 -1.4429481033898610e-06 0.0000000000000000e+00  -4.4425708554430214e-06 -2.4579517963863762e-07 0.0000000000000000e+00  -4.3867291501344859e-06 -4.5299301053078156e-08 0.0000000000000000e+00  -4.0669354577040939e-07 2.1952823777506105e-07 0.0000000000000000e+00  3.0580478554584119e-06 -7.2059377965021501e-07 0.0000000000000000e+00  1.6583342678483373e-01 -4.3590567980962129e-07 0.0000000000000000e+00  -1.1155498640449078e-06 -3.7217164584265898e-08 0.0000000000000000e+00  2.8835077414147285e-06 9.0342238758108933e-08 0.0000000000000000e+00  -4.8530909731702951e-07 -9.6144153589263765e-08 0.0000000000000000e+00  4.1196715735151530e-07 4.9772949273805669e-08 0.0000000000000000e+00  -4.2669445641477153e-07 -6.3982919021487894e-09 0.0000000000000000e+00  -1.0474588109116775e-06 -9.7317357508189916e-09 0.0000000000000000e+00  -1.4778578805647492e-06 6.9177201968752137e-08 0.0000000000000000e+00  -2.5313295137525299e-06 -4.8642042611589030e-07 0.0000000000000000e+00  -8.8935485924360142e-06 -1.1846596321431227e-06 0.0000000000000000e+00  -1.1254915436141556e-06 -3.5866400786314721e-08 0.0000000000000000e+00  -1.0201753929780136e-06 -4.6385724375897691e-08 0.0000000000000000e+00  -2.4211221364945358e-06 5.0252185182995297e-07 0.0000000000000000e+00  9.6875448634001947e-08 -2.0921483425762816e-08 0.0000000000000000e+00  -4.9964796792274392e-07 -4.6479502143626956e-10 0.0000000000000000e+00  -6.3228231245060429e-08 2.2577013198690091e-10 0.0000000000000000e+00  2.2868377362402847e-01 1.6739979563964964e-02 0.0000000000000000e+00  2.2561482915653178e-01 1.1731564720003917e-03 0.0000000000000000e+00  1.7042567174584930e-01 -3.4791562493740121e-03 0.0000000000000000e+00  3.0571057434149063e-01 -9.9561462909141474e-02 0.0000000000000000e+00  2.2565926509447348e-01 -2.4900322147751626e-05 0.0000000000000000e+00  2.2536658838334728e-01 -2.8537657119118408e-05 0.0000000000000000e+00  2.7943043933782057e-07 -9.3919396539752534e-10 0.0000000000000000e+00  1.6285785891913975e-07 2.6597039360811261e-10 0.0000000000000000e+00  -5.5046658189969369e-07 1.0092153309861046e-09 0.0000000000000000e+00  1.8677979462184097e-01 -2.3293761117287626e-05 0.0000000000000000e+00  -7.9953381059897031e-07 -6.7748711970402474e-09 0.0000000000000000e+00  2.4131115995046964e-01 -2.6945634826258915e-02 0.0000000000000000e+00  -1.0062450663880120e-06 -5.2453563393870569e-08 0.0000000000000000e+00  -9.9794665991447558e-07 -7.3785292945077002e-09 0.0000000000000000e+00  -1.3904386812997172e-06 -1.4287015134217354e-07 0.0000000000000000e+00  -4.8997145016840429e-07 -1.2766728316566926e-07 0.0000000000000000e+00  -4.2254167298943263e-07 -8.9302667977037813e-08 0.0000000000000000e+00  -8.3700133164700670e-07 -6.5029692713347552e-08 0.0000000000000000e+00  -3.7122034107610806e-07 -5.4035162972974424e-08 0.0000000000000000e+00  -2.3784120461962565e-06 8.2679929224536606e-08 0.0000000000000000e+00  5.0955450787186913e-08 -3.7382151154633391e-08 0.0000000000000000e+00  -1.3070974086837486e-06 -1.9950763895335079e-08 0.0000000000000000e+00  1.4402899480715131e-01 -2.5177295007233563e-02 0.0000000000000000e+00  1.0466863610428997e-06 3.3379467444328663e-07 0.0000000000000000e+00  2.1868887517879151e-01 5.3038899034427685e-03 0.0000000000000000e+00  2.6270787891517378e-01 -3.6861233565311832e-02 0.0000000000000000e+00  1.0678284845745510e-01 5.3138782028112974e-03 0.0000000000000000e+00  3.0479918044000109e-01 1.0664060133900367e-01 0.0000000000000000e+00  2.0531685178882170e-01 3.3845685244597674e-03 0.0000000000000000e+00  3.4320718095119146e-01 -7.8891002318776660e-02 0.0000000000000000e+00  1.9666604489857797e-01 -1.7113705416699901e-03 0.0000000000000000e+00  7.1457064044948712e-02 5.1346402592332439e-02 0.0000000000000000e+00  2.0630109006301903e-01 9.9238853028970418e-05 0.0000000000000000e+00  2.0623057396063443e-01 -3.7170035907893383e-05 0.0000000000000000e+00  1.8668907764658627e-01 1.4483105967460244e-04 0.0000000000000000e+00  7.5234905281957642e-02 5.0951123093106848e-08 0.0000000000000000e+00  2.7319254990737307e-01 1.1379667591016895e-08 0.0000000000000000e+00  2.1791850540363550e-01 -4.5327161799972741e-05 0.0000000000000000e+00  2.4134794248484007e-01 7.2128333073710402e-02 0.0000000000000000e+00  1.6636911926063427e-01 -3.1309534194577084e-05 0.0000000000000000e+00  1.6205863043433036e-01 1.7473047712803363e-02 0.0000000000000000e+00  1.8565630002386446e-01 8.9427572919592180e-03 0.0000000000000000e+00  3.1319633390863011e-01 -3.8204793143792361e-02 0.0000000000000000e+00  1.8178764981413059e-01 -3.6051436432699765e-05 0.0000000000000000e+00  1.8758172312369520e-01 1.0575883176022613e-03 0.0000000000000000e+00  1.5114406982904569e-01 -6.0574037538527671e-02 0.0000000000000000e+00  3.9411543170062141e-01 -3.9659096916502615e-02 0.0000000000000000e+00  4.3130565985058489e-02 2.2942830701155700e-02 0.0000000000000000e+00  1.8666212024143350e-01 -1.1595281027318995e-05 0.0000000000000000e+00  2.0574081710069800e-01 -4.0132934955608351e-02 0.0000000000000000e+00  1.9685926352083549e-01 7.4460978245591870e-03 0.0000000000000000e+00  1.7119934189984676e-01 5.8832708839027690e-04 0.0000000000000000e+00  3.0842614084803880e-02 -2.6624620911072591e-02 0.0000000000000000e+00  4.2602515743375813e-01 -3.5395254102712194e-02 0.0000000000000000e+00  -5.2714615471088588e-07 7.6219204953189245e-08 0.0000000000000000e+00  2.2475495253593009e-01 1.5267011285759644e-04 0.0000000000000000e+00  -9.3309085604446826e-07 -2.1207126937318882e-09 0.0000000000000000e+00  1.9786238139774562e-01 9.2154615130422965e-04 0.0000000000000000e+00  3.1044231590269811e-01 -5.2157406890233772e-02 0.0000000000000000e+00  2.3503775409193253e-01 1.3013779909692672e-02 0.0000000000000000e+00  1.2572230502640253e-01 7.1199131710743796e-02 0.0000000000000000e+00  2.3126830232684600e-01 1.4855566503494223e-02 0.0000000000000000e+00  2.0878541687234195e-01 2.4423792116930347e-02 0.0000000000000000e+00  1.4760662099686767e-01 7.4070808530161653e-02 0.0000000000000000e+00  4.5646375928322952e-01 -1.3510566739635731e-02 0.0000000000000000e+00  7.4173833752467361e-02 3.1258304233769352e-02 0.0000000000000000e+00  -2.2422545604647497e-07 -7.9208321753003175e-08 0.0000000000000000e+00  1.4410558924423908e-01 -2.1997556958833162e-05 0.0000000000000000e+00  -1.6303311835593912e-06 -4.2636547129696552e-10 0.0000000000000000e+00  -1.2813877468962082e-06 8.4019127628784668e-09 0.0000000000000000e+00  1.8175112833748937e-06 3.4137512592888661e-07 0.0000000000000000e+00  2.2401978563669228e-01 1.0080548054436127e-02 0.0000000000000000e+00  -1.9085020590509113e-06 -2.5078335692896207e-08 0.0000000000000000e+00  4.0372857877742863e-01 4.2543270745343899e-02 0.0000000000000000e+00  3.7412538515193527e-01 7.6889312100351895e-02 0.0000000000000000e+00  1.5326964039348734e-01 1.5528785436420467e-04 0.0000000000000000e+00  3.4358484989758042e-01 1.3197666036442526e-02 0.0000000000000000e+00  -1.0474832139922175e-06 -2.1935985695521905e-08 0.0000000000000000e+00  -7.2689022978193468e-08 -6.3827425461004752e-09 0.0000000000000000e+00  -3.4303350388943703e-07 8.3613114951686739e-08 0.0000000000000000e+00  1.5827685227512098e-01 -3.8182043065580014e-05 0.0000000000000000e+00  1.0683298931607660e-01 5.1526170043229317e-03 0.0000000000000000e+00  -3.2050841196292596e-07 -9.4087111702874510e-08 0.0000000000000000e+00  1.4496027505601397e-01 -2.5515332683798454e-02 0.0000000000000000e+00  1.5510156750575632e-01 1.4906781584455778e-01 0.0000000000000000e+00  3.9614483407615214e-01 -3.3935226778827259e-02 0.0000000000000000e+00  1.8105428178438247e-06 -1.2548168645739118e-07 0.0000000000000000e+00  1.1293219263750116e-01 4.8778059266505983e-02 0.0000000000000000e+00  2.3482678688798353e-01 5.3043584756760449e-03 0.0000000000000000e+00  1.5940271167109660e-01 -1.6425428319105494e-02 0.0000000000000000e+00  -2.8977811480044328e-06 4.6245515462693278e-07 0.0000000000000000e+00  4.2708786789857839e-03 6.6493202550746379e-03 0.0000000000000000e+00  2.2318434397027606e-01 2.6692553027406738e-03 0.0000000000000000e+00  2.9781344661055015e-01 -9.2724664632700210e-02 0.0000000000000000e+00  2.6798677802507298e-01 -7.0246948395405281e-02 0.0000000000000000e+00  1.5599993321025435e-01 1.7168429757414155e-03 0.0000000000000000e+00  1.7856444827204151e-01 -7.9781272336461498e-02 0.0000000000000000e+00  2.3839210281097897e-01 2.4659624587978608e-02 0.0000000000000000e+00  5.7513651401435488e-02 2.0095509979462370e-02 0.0000000000000000e+00  1.4739989037460749e-01 2.4013881292001570e-03 0.0000000000000000e+00  2.6071265921833103e-02 1.1179632633084137e-02 0.0000000000000000e+00  2.1197612891274656e-01 7.5343341796241170e-03 0.0000000000000000e+00  3.5503122822380669e-02 1.6117395034384040e-02 0.0000000000000000e+00  1.0149407904265348e-01 -1.9913837113559801e-02 0.0000000000000000e+00  -9.4666414106772973e-07 -1.1422942967704855e-07 0.0000000000000000e+00  -2.1054317145154643e-07 -5.8187030841750472e-08 0.0000000000000000e+00  -7.6170898610055873e-07 3.8210829335429961e-07 0.0000000000000000e+00  3.5794424692578652e-01 -4.6201946784135563e-02 0.0000000000000000e+00  7.8042211812145143e-02 3.1205326485079281e-02 0.0000000000000000e+00  -2.2363960922499765e-06 -1.0097397231184441e-07 0.0000000000000000e+00  -1.2179610418183955e-06 -7.5145878390324691e-08 0.0000000000000000e+00  1.4610785752960417e-01 2.5510978871989146e-03 0.0000000000000000e+00  2.1482142365047857e-01 5.1966493088646956e-04 0.0000000000000000e+00  -7.1689487100746543e-07 -1.5849836592770437e-09 0.0000000000000000e+00  -1.0826126430404215e-06 1.1048228077165864e-07 0.0000000000000000e+00  -1.3376460870570975e-06 -2.0155301595462403e-07 0.0000000000000000e+00  -1.3697849040961921e-07 -1.1646701101519319e-09 0.0000000000000000e+00  -9.8208901972077008e-08 3.4318628756906657e-10 0.0000000000000000e+00  3.7402638195632155e-07 -2.0741254184087419e-09 0.0000000000000000e+00  -2.1896542662506234e-06 -2.6525382040314354e-07 0.0000000000000000e+00  1.8454123383499529e-06 -6.6798438135373937e-07 0.0000000000000000e+00  -3.1593511992445529e-07 -1.1387858487410040e-07 0.0000000000000000e+00  1.4294183069961632e-06 -2.7391819500632694e-07 0.0000000000000000e+00  1.7668319625811091e-07 -1.4089275074302832e-08 0.0000000000000000e+00  -8.9601316801730117e-07 7.3904484812132431e-10 0.0000000000000000e+00  -3.0554844771276103e-07 2.2381706309867254e-10 0.0000000000000000e+00  2.6475863793736062e-02 1.4519900058163336e-02 0.0000000000000000e+00  8.6669847542418077e-02 2.6900956090005440e-03 0.0000000000000000e+00  1.6627570967009611e-01 -2.1728839714186630e-02 0.0000000000000000e+00  1.4010600673468460e-01 9.7304432471421185e-04 0.0000000000000000e+00  2.9173745348569979e-01 7.6087449167805563e-02 0.0000000000000000e+00  3.3696611451601310e-01 5.3589084067498051e-02 0.0000000000000000e+00  3.1541204890012886e-01 2.6287806362178385e-02 0.0000000000000000e+00  1.4918236325567891e-01 -1.0428618576727439e-05 0.0000000000000000e+00  2.2495496661709441e-01 5.0771289775281428e-03 0.0000000000000000e+00  2.7552045853970714e-01 -5.2494840315745486e-02 0.0000000000000000e+00  9.2010304611279833e-02 8.3612636024702203e-03 0.0000000000000000e+00  2.2509016970533083e-01 -4.0553736920744766e-05 0.0000000000000000e+00  2.2554508668258921e-01 -5.1950901217869519e-05 0.0000000000000000e+00  2.1636621428689295e-01 -4.8379636961498512e-05 0.0000000000000000e+00  2.2286596604044381e-01 2.3611089927715480e-05 0.0000000000000000e+00  1.3269427545375867e-01 2.9848005625353883e-06 0.0000000000000000e+00  1.4125834958414552e-01 -1.6110636601609152e-05 0.0000000000000000e+00  1.9859057738105806e-01 1.8947570925419727e-01 0.0000000000000000e+00  4.2954102710802286e-02 4.8311898753226175e-02 0.0000000000000000e+00  8.7614620917050440e-02 -7.3785414381162010e-03 0.0000000000000000e+00  2.2001296123359987e-01 -4.9901420964491260e-03 0.0000000000000000e+00  1.8438465447688199e-01 4.4836563821985774e-03 0.0000000000000000e+00  2.2185046070001099e-01 2.3273744862055642e-03 0.0000000000000000e+00  2.6355483538873631e-01 -2.1989452565282164e-02 0.0000000000000000e+00  2.1392306783644280e-01 -4.6660937215222405e-05 0.0000000000000000e+00  1.2845824406491649e-01 7.2503240872257959e-03 0.0000000000000000e+00  2.2622634627211841e-01 1.1458671898525025e-02 0.0000000000000000e+00  3.2402944671106088e-01 -9.2252898227393521e-02 0.0000000000000000e+00  1.3670997855666747e-01 1.7648927670698453e-04 0.0000000000000000e+00  2.1668758209599909e-01 5.9416327517798791e-04 0.0000000000000000e+00  1.3417405826264156e-01 -6.5864688070756278e-06 0.0000000000000000e+00  1.6292534423585067e-01 7.8084090987587423e-02 0.0000000000000000e+00  2.4625198494651585e-01 1.2986467497033011e-01 0.0000000000000000e+00  2.1945323600292718e-01 3.0961354141861554e-02 0.0000000000000000e+00  1.1046506870053563e-01 -1.3754891434255418e-02 0.0000000000000000e+00  3.1325309913680921e-01 -7.3565082240885898e-02 0.0000000000000000e+00  1.9677189397953165e-01 -2.7091877503634301e-02 0.0000000000000000e+00  3.9243119635277157e-01 1.8072177873203435e-02 0.0000000000000000e+00  2.1271714272905201e-01 2.1318133563203577e-02 0.0000000000000000e+00  1.8412985404143661e-01 1.7547600916635327e-02 0.0000000000000000e+00  3.4049782113916849e-01 1.8259962382373321e-01 0.0000000000000000e+00  2.7700244784327616e-01 3.6151571543158838e-02 0.0000000000000000e+00  2.3164888649050142e-01 7.2510289429508434e-02 0.0000000000000000e+00  2.2558118514573258e-01 4.7556912838466359e-04 0.0000000000000000e+00  2.0036538702443388e-01 -3.7892334557450559e-05 0.0000000000000000e+00  2.1785079821740405e-01 -1.7566769887563319e-05 0.0000000000000000e+00  2.9837052621955229e-01 -3.5725691003225021e-02 0.0000000000000000e+00  1.2566178816678883e-01 2.5581755506785524e-02 0.0000000000000000e+00  1.1759916513270077e-01 3.1570788149875625e-03 0.0000000000000000e+00  2.0969461670274109e-01 2.1417804999717557e-02 0.0000000000000000e+00  1.5933134990941419e-01 4.9192803320162425e-02 0.0000000000000000e+00  2.2461068989663754e-01 1.0794886039820834e-02 0.0000000000000000e+00  1.4805375369297755e-01 3.8899753072246311e-03 0.0000000000000000e+00  7.9890072555063724e-02 -4.6763229716039474e-02 0.0000000000000000e+00  4.6320650354066267e-01 4.2685770766671585e-02 0.0000000000000000e+00  1.2821798969107298e-01 -4.9068213236891881e-02 0.0000000000000000e+00  3.4678886037379636e-01 -3.4401346701448295e-02 0.0000000000000000e+00  2.0479602151479773e-01 -2.0541472974808047e-05 0.0000000000000000e+00  2.3628947227940716e-01 -1.3645341361525221e-02 0.0000000000000000e+00  2.0016570046548154e-01 5.9802675374712889e-03 0.0000000000000000e+00  2.1546047758601319e-01 1.4427928807579343e-02 0.0000000000000000e+00  2.0637268286953303e-01 -5.1052402680054974e-02 0.0000000000000000e+00  -1.2146696219420627e-04 9.8898282152166499e-03 0.0000000000000000e+00  1.0586649257128111e-01 2.8364564720311197e-04 0.0000000000000000e+00  6.3457595137689726e-02 -2.0040369710742224e-02 0.0000000000000000e+00  9.8272825668964725e-02 2.2838147228355286e-02 0.0000000000000000e+00  6.2744756422249956e-02 1.7633778401546080e-02 0.0000000000000000e+00  1.9950444522810054e-01 -1.2096044856508665e-05 0.0000000000000000e+00  1.1312497818449818e-01 -2.1342245570478340e-05 0.0000000000000000e+00  4.0324067168081706e-01 -4.0089044671780261e-02 0.0000000000000000e+00  2.1813129873014661e-01 1.2560947863425014e-03 0.0000000000000000e+00  2.0655792825264457e-01 4.5623881730863974e-05 0.0000000000000000e+00  3.5785431535713022e-02 8.7958671580618518e-08 0.0000000000000000e+00  7.4773286031012673e-02 1.0124536487521431e-02 0.0000000000000000e+00  1.5903783851078840e-01 4.2037445670197265e-02 0.0000000000000000e+00  2.2120622392904254e-01 1.6288761207578436e-05 0.0000000000000000e+00  2.0511861406410306e-01 2.6351419220068807e-03 0.0000000000000000e+00  1.4316284572554441e-01 -1.1109840664541369e-02 0.0000000000000000e+00  3.0325207014525396e-01 -4.9370246590172286e-02 0.0000000000000000e+00  3.8093974957062077e-01 3.5646635595285157e-02 0.0000000000000000e+00  1.2948895212600622e-01 2.7020324431420114e-03 0.0000000000000000e+00  1.0386031134408304e-01 2.4898670412798772e-04 0.0000000000000000e+00  1.1620883482248383e-01 -1.5141097772076884e-05 0.0000000000000000e+00  -6.5071236472438072e-03 1.2884180774130199e-02 0.0000000000000000e+00  3.3356379825489191e-01 2.6166554288097771e-08 0.0000000000000000e+00  8.9743748131867779e-02 6.1125954961833342e-03 0.0000000000000000e+00  3.9032557395240930e-01 3.2718268600014904e-03 0.0000000000000000e+00  1.2044678385177252e-01 -2.7046006518684675e-05 0.0000000000000000e+00  2.6962405604298856e-01 -6.0103590899840617e-02 0.0000000000000000e+00  1.1852650417103190e-01 -2.7131665444188859e-08 0.0000000000000000e+00  2.1791164126390000e-01 -1.3677589434101861e-05 0.0000000000000000e+00  1.1613785016653724e-01 1.4771809463518837e-06 0.0000000000000000e+00  2.1733315292013866e-01 -3.4881515017205246e-08 0.0000000000000000e+00  1.1632477328943608e-01 2.9242196200297547e-05 0.0000000000000000e+00  1.8844104759594119e-01 1.5484003614102257e-02 0.0000000000000000e+00  2.2248370426355035e-01 -3.0383875063058588e-05 0.0000000000000000e+00  1.0111213197769972e-01 -1.6182842077118609e-02 0.0000000000000000e+00  1.0264360138266887e-01 -1.5600430661850907e-03 0.0000000000000000e+00  2.0728567820784771e-01 -1.1119388900607104e-02 0.0000000000000000e+00  -2.0563801996540041e-02 -2.9462313441111381e-03 0.0000000000000000e+00  3.1131837462252976e-01 -1.6329298086974031e-02 0.0000000000000000e+00  2.8509206125767228e-01 -1.6874164725592552e-02 0.0000000000000000e+00  4.0889966658751148e-01 -4.5193843615018110e-02 0.0000000000000000e+00  1.0903249818513364e-01 1.3431954796538329e-03 0.0000000000000000e+00  2.8058780126588689e-01 -3.1499322890994753e-02 0.0000000000000000e+00  2.7994329869055862e-01 -1.7069044302363771e-02 0.0000000000000000e+00  1.9371750155193787e-01 -3.7597625672105799e-05 0.0000000000000000e+00  2.4392956706337657e-01 -9.1170275401565276e-02 0.0000000000000000e+00  8.8332490148609388e-02 -8.8554050191071764e-06 0.0000000000000000e+00  1.7656495018886759e-01 -1.1191554559570537e-02 0.0000000000000000e+00  2.851913