<?xml version="1.0"?>
<VTKFile type="UnstructuredGrid"  version="0.1"  >
<UnstructuredGrid>
<Piece  NumberOfPoints="1404" NumberOfCells="2604">
<Points>
<DataArray  type="Float64"  NumberOfComponents="3"  format="ascii">0 0.41 0  0 0 0  2.2 0 0  2.2 0.41 0  0.2353553390593274 0.2353553390593274 0  0.25 0.2 0  0.2353553390593274 0.1646446609406726 0  0.2 0.15 0  0.1646446609406726 0.1646446609406726 0  0.15 0.2 0  0.1646446609406726 0.2353553390593274 0  0.2 0.25 0  0.6923879532511287 0.188268343236509 0  0.7 0.15 0  0.6923879532511287 0.1117316567634909 0  0.6707106781186547 0.07928932188134523 0  0.6382683432365089 0.05761204674887133 0  0.6 0.04999999999999999 0  0.5617316567634909 0.05761204674887134 0  0.5292893218813453 0.07928932188134524 0  0.5076120467488713 0.111731656763491 0  0.5 0.15 0  0.5076120467488713 0.188268343236509 0  0.5292893218813453 0.2207106781186547 0  0.561731656763491 0.2423879532511287 0  0.6 0.25 0  0.6382683432365089 0.2423879532511287 0  0.6707106781186547 0.2207106781186547 0  1.1 0 0  0 0.205 0  1.1 0.41 0  0.55 0 0  0.55 0.41 0  0.275 0 0  0.8250000000000001 0 0  0.275 0.41 0  0.8250000000000001 0.41 0  0.6875 0 0  0.61875 0 0  1.65 0.41 0  1.65 0 0  1.375 0 0  1.375 0.41 0  1.925 0 0  1.925 0.41 0  1.5125 0.205 0  1.7875 0.205 0  0.9625000000000001 0.205 0  1.2375 0.205 0  2.2 0.205 0  1.99375 0.2152743902439024 0  0.4125 0.41 0  2.0625 0 0  2.0625 0.41 0  2.2 0.3075 0  1.7875 0.41 0  1.375 0.1486128048780488 0  1.5125 0 0  1.7875 0 0  1.5125 0.41 0  0.9625000000000001 0.41 0  0.4125 0 0  0.1375 0 0  0.1375 0.41 0  0.6875 0.41 0  0.9625000000000001 0 0  1.2375 0 0  1.1 0.1486128048780488 0  1.2375 0.41 0  1.65 0.1486128048780487 0  0.823495464168302 0.2603780552348366 0  0.3738707794507017 0.2720196349488618 0  0.3662291281331582 0.1311456406657909 0  1.676715909090909 0.2793064024390244 0  1.126715909090909 0.2793064024390244 0  1.348284090909091 0.2793064024390244 0  0.8287581077665108 0.1302150898054257 0  1.894702181800738 0.1282910975492754 0  2.092797818199262 0.1282910975492754 0  1.85625 0.3075 0  0 0.3075 0  0 0.1025 0  2.099172119769978 0.25625 0  0.4752414543992246 0.3180372603390748 0  1.99375 0.08395950269330846 0  1.459960956013612 0.3075 0  1.569025960719943 0.2986889805672169 0  1.03125 0.3278689922742084 0  1.959375 0.3126371951219512 0  1.749222215368287 0.1025 0  1.275777784631713 0.1025 0  0.9228016959331474 0.3075 0  1.000777784631713 0.1025 0  2.2 0.1025 0  1.225938124459196 0.3075 0  1.550777784631713 0.1025 0  1.44375 0.07430640243902442 0  1.16875 0.07430640243902439 0  0.7562500000000001 0.3358727844323386 0  0.89375 0 0  1.899250267340833 0.2229966846119207 0  0.61875 0.41 0  1.766482954545455 0.2934032012195123 0  1.046078563095834 0.2389031808701145 0  1.421109702350723 0.2261157654379721 0  0.07567171807980319 0.25625 0  0.2511897295290552 0.3235829392832554 0  0.07655002503762308 0.1488653460959645 0  0.1377245246847496 0.3206030474919778 0  0.6694099692696568 0.3242771941727899 0  0.9168971191497528 0.1295727156104653 0  0.7562500000000001 0 0  2.118919042110979 0.3422084711244843 0  2.13125 0 0  0.06875000000000001 0 0  1.30625 0.41 0  1.597888256393107 0.2173787389261347 0  0.34375 0.41 0  0.2493272016354703 0.08091360081773515 0  0.5588896233436766 0.3264056208677571 0  1.829299675393195 0.07400700849299596 0  0.1334079128307869 0.08523463035786674 0  1.71875 0.41 0  0.06875000000000001 0.41 0  1.16875 0.41 0  2.038220665644273 0.332420740103091 0  0.8810647413215221 0.2027360103977071 0  0.34375 0 0  0.7453891198966415 0.2471459041008237 0  0.42112093004955 0.1988123139090554 0  0.8314023090855964 0.3351170841770613 0  0.89375 0.41 0  0.7906250000000001 0.06615386481594063 0  1.452769549894695 0.1548122580621249 0  1.369219062229598 0.07430640243902442 0  1.30625 0 0  1.07420695807087 0.07430640243902439 0  1.720943423819132 0.1714577452753128 0  1.157188124459196 0.205 0  1.304056576180868 0.1714577452753128 0  1.67579304192913 0.07430640243902437 0  1.209670467133757 0.136210026696477 0  0.4312800784902823 0.08036147352247747 0  0.8723959680194693 0.07066860609690805 0  1.025335513626278 0.1700681449722324 0  0.7945632284247136 0.1940204203251442 0  0.378125 0.3452261501101892 0  0.3307109909790086 0.2037165635083759 0  0.3009701032039409 0.2702970083403109 0  0.20625 0.41 0  1.58125 0 0  0.4812500000000001 0 0  0.9838963872396855 0.2722244191167347 0  0.06772484939107212 0.3260067317374387 0  0.20625 0 0  1.58125 0.41 0  1.631724228912893 0.3381867502687533 0  1.825608881788174 0.14499488549201 0  1.85625 0 0  1.44375 0 0  1.44375 0.41 0  1.85625 0.41 0  2.13125 0.41 0  0.7562500000000001 0.41 0  0.4812500000000001 0.41 0  1.16875 0 0  1.03125 0.41 0  1.03125 0 0  1.71875 0 0  1.99375 0 0  1.99375 0.41 0  0.9408708167433545 0.0651989315768642 0  1.340625 0.3489494290853124 0  1.134375 0.3489494290853123 0  1.700180620188976 0.3438659752031281 0  0.29668452290037 0.1318471691375986 0  0.3175441051360096 0.06496934809856265 0  0.06509151636162461 0.08140814015999148 0  2.135782184673599 0.07126652247502523 0  1.668441847249787 0.2129203728327609 0  1.295782514339747 0.2378437748815763 0  1.409375 0.3520314716057996 0  2.129248544730567 0.1906135162504124 0  2.060771381434487 0.1989445750470348 0  2.013252586573865 0.1496169464686054 0  1.942766402200229 0.1734448904596831 0  1.895522487186454 0.06076163953489683 0  2.069553871656643 0.06605731020975725 0  0.4670911801404742 0.2498408582391372 0  0.7622743084658112 0.1264100838268133 0  1.274680914880868 0.3520219391081363 0  0.3148669572599245 0.3331753056385887 0  1.614713220494657 0.09473434380863296 0  1.72990325744076 0.2380068107952482 0  1.356580098625191 0.2120393231351682 0  2.034370752044885 0.2668681600792073 0  1.51768709249349 0.3426260931494756 0  1.561883724969884 0.1650446847858835 0  1.197344062229598 0.2523725417393646 0  1.804085235518364 0.3468178408964637 0  1.817887819205233 0.2589243285818559 0  1.905897727272727 0.3485060975609756 0  0.7296439733931823 0.06337466644369745 0  0.4250935971865949 0.1394919578475796 0  0.3773030136511669 0.05130372097998036 0  1.192836486056382 0.3562350748565544 0  1.1029124365364 0.226143510831178 0  1.28257088594801 0.2944411014911587 0  0.1905185804731426 0.06029880676029167 0  1.474860187679412 0.2504218616229368 0  1.406767003493824 0.2829282258560709 0  0.5209826960981064 0.2830664557824064 0  0.5131119502780163 0.3617405848213254 0  0.1948220106098172 0.3081993407644811 0  1.845656689180403 0.1998310418452388 0  2.144958525570388 0.2909790873294231 0  2.2 0.15375 0  0.8833025251326762 0.2625402923007629 0  0.171875 0.3653875762360952 0  1.57794966442982 0.3540357145964566 0  0.446875 0.366068291212731 0  0.4272051715206439 0.2891929346190664 0  1.508991196088596 0.1421783375065625 0  1.50436820029908 0.06143401634903343 0  1.223857000523521 0.08235548624535324 0  0.6137904613287555 0.3066826366281556 0  1.153316824384777 0.1289850171317838 0  0.9751573703656133 0.327632618473408 0  2.148922302309752 0.1258841779285271 0  0.9281250000000001 0.3643758685795699 0  1.621993280276081 0.2841214267927899 0  1.550118654119087 0.2461998729100966 0  1.327182649291491 0.1216967252533594 0  0.9939955742738924 0.04663549843168518 0  1.753125 0.04556020050186112 0  1.271875 0.04556020050186116 0  0.9734326767716519 0.1506854560854393 0  0.103125 0.3675775577080512 0  1.94956388244759 0.1180512551534177 0  1.949997712993411 0.04965831614304109 0  0.717433898748555 0.295596016333797 0  1.771961817615021 0.1530278789497521 0  1.909246823951428 0.2812757146784527 0  0 0.35875 0  1.050632804931928 0.1226269704412814 0  0.05695108326502596 0.2024009637347154 0  1.948575539857022 0.2445328248721197 0  1.697271520964565 0.1233917627620729 0  1.065625 0.3689344961371042 0  1.085849084308977 0.3170853572226867 0  0.1015495998772944 0.04226029099983852 0  1.577403511714593 0.05463601888079143 0  1.751571320346033 0.3651102912045228 0  2.2 0.35875 0  0.7441773632462837 0.1786786606458751 0  0 0.05125 0  1.466879772203159 0.3611261772912453 0  0.6282230348858767 0.3577675483994025 0  1.990280163552011 0.3564754268533217 0  1.17471064520912 0.2990917256188288 0  0 0.25625 0  2.2 0.25625 0  2.2 0.05125 0  0 0.15375 0  1.853978576207987 0.35875 0  1.515638456102889 0.2882700110184686 0  2.150453692751374 0.2387066338105111 0  1.323782677156475 0.04897634338873398 0  1.409375 0.03715320121951221 0  1.406484531114799 0.1087852750766809 0  1.134375 0.03715320121951219 0  0.721875 0.3729363922161693 0  0.7941695928236929 0.3696489254637395 0  0.7934827162619036 0.3013409431456604 0  1.627401732573545 0.04552157221025036 0  0.9352049974617431 0.2507047965699472 0  0.8763260682738339 0.3611103317460093 0  2.045405893604797 0.1105340662939892 0  1.255408269734577 0.1577307500159216 0  2.028125 0.03707597992059326 0  1.003030137506755 0.3689344961371042 0  1.248258025468107 0.2565907092181813 0  1.203125 0.03661323374043041 0  0.4800125512335631 0.0549472816999725 0  2.072662025974815 0.2975086504196739 0  0.240625 0.3729825336867542 0  1.113252391110535 0.10238286244357 0  1.071052763974265 0.1885202618768825 0  0.8738809401657862 0.3106483608284829 0  0.6786819423003397 0.2677558482644021 0  1.887722846421017 0.1760882698830035 0  1.472640588990488 0.1118278026240017 0  0.5843750000000001 0.41 0  1.865937103925594 0.2604137786483804 0  1.463913572748262 0.2030442564990043 0  1.376426316059077 0.3186741374914345 0  0.1038643885363755 0.2162701735320032 0  0.1769473813227781 0.1070849728467114 0  0.458787839809176 0.171541653775316 0  0.240625 0 0  0.04179569703428024 0.2877217852556549 0  0.1258346557601885 0.2699740073054968 0  1.722140693354707 0.282908100935778 0  0.41206179117512 0.2448172567039922 0  0.3702471778075604 0.2265217604228704 0  0.3714881805374215 0.1786967818665642 0  1.77397096061971 0.2481483237422926 0  2.105123889160691 0.03743885948498647 0  1.001138337938679 0.229719337663998 0  1.051242910646791 0.2854826559431138 0  1.395420985247586 0.18
[...]
<PointData  Vectors="f_37"> 
<DataArray  type="Float64"  Name="f_37"  NumberOfComponents="3" format="ascii">5.7893670028539061e-07 5.6420916315598051e-07 0.0000000000000000e+00  -3.8953996725091978e-06 -8.7033502870896474e-07 0.0000000000000000e+00  -1.2251657808512733e-06 4.8152197396380592e-09 0.0000000000000000e+00  -1.4980210856831598e-06 -5.1485749845592433e-09 0.0000000000000000e+00  5.0476548611520030e-06 -2.4675063878883204e-06 0.0000000000000000e+00  3.5820813821262320e-06 -2.4163000182144949e-06 0.0000000000000000e+00  -1.3617753377128748e-06 -2.4027662375151946e-06 0.0000000000000000e+00  -2.7717728126863486e-06 5.1432196254011653e-07 0.0000000000000000e+00  1.2920361238477799e-05 -4.1870217305813498e-06 0.0000000000000000e+00  -2.8094399860910740e-06 -6.8153259383188694e-06 0.0000000000000000e+00  -1.6387088446068838e-06 3.9532594071385591e-06 0.0000000000000000e+00  3.0662358479692053e-06 2.3997554112093993e-06 0.0000000000000000e+00  5.6507132982570810e-06 -4.6851742362759690e-06 0.0000000000000000e+00  2.7873287891100030e-06 1.2857463257772997e-06 0.0000000000000000e+00  1.8800517012778755e-06 2.8338387231014291e-06 0.0000000000000000e+00  5.7470323640076185e-06 1.5209831370206859e-06 0.0000000000000000e+00  7.2618310292929797e-06 -7.8463623216272711e-07 0.0000000000000000e+00  3.2913249247165427e-01 8.6218317413813639e-02 0.0000000000000000e+00  -3.4611401909470253e-06 -5.2166101776749770e-06 0.0000000000000000e+00  -1.0206603917777386e-05 -8.9483630937897714e-07 0.0000000000000000e+00  -2.2847778920618817e-06 8.8869186940176668e-07 0.0000000000000000e+00  2.6286046592049157e-06 7.1353824081828355e-06 0.0000000000000000e+00  5.6193816415064229e-06 4.0957952746609197e-06 0.0000000000000000e+00  3.7379504159085884e-06 -5.4106533610667668e-06 0.0000000000000000e+00  -4.8020727204840330e-06 -5.2660674202746566e-06 0.0000000000000000e+00  -9.5488516987952920e-06 -1.1748227689839953e-07 0.0000000000000000e+00  -8.8639796790660997e-06 3.3183606130103605e-06 0.0000000000000000e+00  5.7373922702398836e-06 -2.1308179165713392e-06 0.0000000000000000e+00  -1.2672832645675303e-06 2.7179338445217838e-08 0.0000000000000000e+00  1.6583308313363007e-01 -1.4511424663405825e-06 0.0000000000000000e+00  -1.5964847573635133e-06 -1.0042440161141807e-08 0.0000000000000000e+00  1.4257855515816425e-06 -4.8582099194916090e-06 0.0000000000000000e+00  -1.4896865179425024e-07 -5.0333477397804104e-07 0.0000000000000000e+00  1.9072530249171882e-06 -6.2742306581279084e-07 0.0000000000000000e+00  -1.4819302102471550e-06 -2.0131182963292542e-07 0.0000000000000000e+00  1.7106657115191000e-07 -1.2406995713897828e-07 0.0000000000000000e+00  -2.3048373511272633e-06 -6.3657387190418846e-09 0.0000000000000000e+00  -6.9074727922542021e-08 -9.0748138042272977e-08 0.0000000000000000e+00  -2.8186482405752642e-06 -2.3230169061015920e-06 0.0000000000000000e+00  -1.6787462223292837e-06 9.0621896175745442e-10 0.0000000000000000e+00  -2.2233664135616872e-06 -4.5155796757861402e-09 0.0000000000000000e+00  -1.4123623318370539e-06 -4.3588806651483591e-09 0.0000000000000000e+00  -8.4773698977494311e-07 -2.9675588820702457e-09 0.0000000000000000e+00  -1.1023989909856905e-06 3.0593170608968746e-09 0.0000000000000000e+00  -4.3283626314374297e-07 -5.2925116770659862e-09 0.0000000000000000e+00  1.9045892360976566e-01 -1.1464119812050155e-04 0.0000000000000000e+00  1.9045270282293042e-01 -3.5900697570438615e-06 0.0000000000000000e+00  1.9035114266212175e-01 -2.7824764695169635e-02 0.0000000000000000e+00  1.9049267970539546e-01 -1.8466732941266428e-03 0.0000000000000000e+00  1.9046328831667542e-01 -2.1057644964330077e-05 0.0000000000000000e+00  1.9045956168503075e-01 -7.9548125368565851e-06 0.0000000000000000e+00  -4.5347117851316113e-07 -7.1560493665562189e-08 0.0000000000000000e+00  -3.7747792524772702e-07 6.0346953765820665e-09 0.0000000000000000e+00  -1.1467905537900781e-06 8.5434740063937452e-09 0.0000000000000000e+00  1.8904804235310788e-01 -5.1013261319860995e-06 0.0000000000000000e+00  -1.5241206408372727e-06 -2.3995043034567774e-09 0.0000000000000000e+00  1.9017791979650256e-01 -3.9040567985918216e-04 0.0000000000000000e+00  -2.0680238877808317e-06 2.4386998805195817e-09 0.0000000000000000e+00  -1.8221217834507221e-06 -1.0031408183038904e-09 0.0000000000000000e+00  -1.3342935723065087e-06 -5.0812940270282104e-09 0.0000000000000000e+00  -2.0994127649297160e-06 -3.2827663287603912e-08 0.0000000000000000e+00  -3.5437243399489496e-06 -7.6118989554356907e-08 0.0000000000000000e+00  3.3866838554165922e-07 3.2757632096799732e-07 0.0000000000000000e+00  -4.4622127387399185e-06 -4.0347145822681594e-07 0.0000000000000000e+00  -8.5973097843897221e-07 1.3289532538770801e-07 0.0000000000000000e+00  -1.7694585349209182e-06 9.7837496234477213e-08 0.0000000000000000e+00  4.0401010840139165e-07 -2.7063509754133299e-09 0.0000000000000000e+00  1.8688462372302206e-01 -6.2421530852566050e-03 0.0000000000000000e+00  -6.1277440855612467e-07 -3.6640541057752721e-09 0.0000000000000000e+00  1.9041665297334939e-01 -2.8333358725556399e-05 0.0000000000000000e+00  2.5631132815548785e-01 -1.0784846465363264e-01 0.0000000000000000e+00  1.6629894400521106e-01 3.5260932612505014e-02 0.0000000000000000e+00  2.3439467094494529e-01 1.0599688335964513e-01 0.0000000000000000e+00  1.9032627579910180e-01 -8.7841527041357329e-06 0.0000000000000000e+00  1.9403835148425344e-01 -3.9554983735815416e-03 0.0000000000000000e+00  1.9074599176772666e-01 -4.4370203441692805e-04 0.0000000000000000e+00  1.0825674997313356e-01 -3.0834387188792760e-02 0.0000000000000000e+00  1.9028491838534578e-01 1.5567801747920954e-05 0.0000000000000000e+00  1.9026955305842783e-01 -6.4426896410262311e-06 0.0000000000000000e+00  1.8907967903053227e-01 2.2381477280977024e-07 0.0000000000000000e+00  7.5234879160777215e-02 2.3679831454856474e-06 0.0000000000000000e+00  2.7319287117303370e-01 -1.4729935738471649e-06 0.0000000000000000e+00  1.9044503829005580e-01 -1.4209662628892420e-05 0.0000000000000000e+00  2.8691787620254949e-01 7.6288725712753386e-02 0.0000000000000000e+00  1.8537967526948410e-01 -2.8912364298634106e-05 0.0000000000000000e+00  1.8920404743352948e-01 -7.0788823016222096e-05 0.0000000000000000e+00  1.8980107882865027e-01 -3.3387580506731705e-05 0.0000000000000000e+00  1.9625466055340174e-01 -4.7163555480831156e-03 0.0000000000000000e+00  1.8844336741926296e-01 -4.2642834601818614e-07 0.0000000000000000e+00  1.8908637629151304e-01 -4.5428219702846612e-07 0.0000000000000000e+00  1.8800338559130089e-01 -6.9050409752334410e-04 0.0000000000000000e+00  2.2501692495385220e-01 -2.1530257905767642e-02 0.0000000000000000e+00  1.7465733702509331e-01 -1.0665434147160355e-02 0.0000000000000000e+00  1.8909806085813702e-01 -3.0011815331657425e-05 0.0000000000000000e+00  1.9072038042034420e-01 -1.0476888851649175e-03 0.0000000000000000e+00  1.8891325950108886e-01 -3.1091952493353617e-05 0.0000000000000000e+00  1.8087442343932467e-01 -5.5213082116028666e-05 0.0000000000000000e+00  1.7812337669599154e-01 -1.2419563009742893e-03 0.0000000000000000e+00  3.4923438595159428e-01 -6.4505706129509274e-02 0.0000000000000000e+00  -2.3352473428276017e-06 1.2622612142473180e-07 0.0000000000000000e+00  1.9047247634853184e-01 -9.4175901873112657e-07 0.0000000000000000e+00  8.3323982838768222e-08 -2.0067219471972720e-07 0.0000000000000000e+00  1.8991819911322894e-01 2.1702446715858630e-05 0.0000000000000000e+00  1.9480042773304285e-01 -1.1391419713981958e-02 0.0000000000000000e+00  1.9052494420440608e-01 -2.7250977373899176e-04 0.0000000000000000e+00  1.2993925166087383e-01 7.9484756746195831e-02 0.0000000000000000e+00  2.4534710001981022e-01 -5.7923797112871143e-04 0.0000000000000000e+00  2.0824990416545475e-01 3.2258982118851143e-02 0.0000000000000000e+00  1.5373048473988260e-01 1.0494992253654961e-01 0.0000000000000000e+00  4.3951863795781382e-01 -5.1402585164421068e-02 0.0000000000000000e+00  1.6270758282090528e-01 -2.7131321028324145e-02 0.0000000000000000e+00  2.2720011290769732e-07 3.7973770697296390e-07 0.0000000000000000e+00  1.7660940699244115e-01 1.6260329026967866e-05 0.0000000000000000e+00  -2.4811945337751305e-06 -2.0125993534778790e-08 0.0000000000000000e+00  5.7021483216904984e-09 -1.0372157519586175e-07 0.0000000000000000e+00  -5.7082310248152463e-07 -5.2252428874256165e-09 0.0000000000000000e+00  1.9045732167661478e-01 -3.9987733370731170e-05 0.0000000000000000e+00  -1.6616878870713288e-06 1.7212756623828628e-07 0.0000000000000000e+00  3.7226300727782169e-01 5.8177297991867043e-02 0.0000000000000000e+00  3.9400268420164392e-01 5.8049563939828824e-02 0.0000000000000000e+00  1.8090922727669070e-01 -1.8925403485698750e-05 0.0000000000000000e+00  3.3977943928564369e-01 2.3758170107787139e-02 0.0000000000000000e+00  -1.7503303820823950e-06 -3.1882494960270455e-10 0.0000000000000000e+00  1.0394900316787244e-06 1.1408146584436983e-06 0.0000000000000000e+00  -1.0713012885076690e-06 -4.1802353681785606e-10 0.0000000000000000e+00  1.8280059940584636e-01 -1.5729221039110575e-06 0.0000000000000000e+00  1.8198208781508260e-01 -6.4977971287596373e-02 0.0000000000000000e+00  -2.1912741323655145e-06 8.2048154951168777e-08 0.0000000000000000e+00  2.4213642854074149e-01 -1.2481203930821325e-01 0.0000000000000000e+00  1.5081095434105965e-01 1.2731928970571429e-01 0.0000000000000000e+00  2.6761995296144475e-01 -3.4025960924893989e-02 0.0000000000000000e+00  -1.5261326986684211e-06 -1.2639758557138055e-07 0.0000000000000000e+00  1.3972280630134912e-01 2.9301505053672558e-02 0.0000000000000000e+00  1.9033133690157455e-01 -1.7198782030757178e-04 0.0000000000000000e+00  1.8062067159545683e-01 -1.4022275135076526e-04 0.0000000000000000e+00  -3.5527038445795603e-07 4.1288898422324730e-10 0.0000000000000000e+00  1.7356858095805539e-01 -3.3852899430882898e-03 0.0000000000000000e+00  1.9043786429465753e-01 -1.4026496670752837e-05 0.0000000000000000e+00  1.9056256647227618e-01 -4.0780976590823739e-03 0.0000000000000000e+00  1.9015183305941633e-01 -9.0921788004653243e-04 0.0000000000000000e+00  1.8100722134950040e-01 -1.9854611061395978e-05 0.0000000000000000e+00  1.8886546620050565e-01 -1.9403276800295634e-03 0.0000000000000000e+00  1.8685652135546788e-01 1.4479969092856722e-03 0.0000000000000000e+00  1.3920167256182486e-01 -1.0439279706480635e-02 0.0000000000000000e+00  1.8589168665137798e-01 -1.4022467802798227e-02 0.0000000000000000e+00  1.1524846752801389e-01 -1.0778000752809183e-01 0.0000000000000000e+00  2.2759143816510430e-01 1.4879205668298782e-02 0.0000000000000000e+00  6.8612342638085036e-02 7.7664001445100522e-02 0.0000000000000000e+00  1.2286395119803092e-01 -2.0786302661355924e-02 0.0000000000000000e+00  -1.8014347057755470e-06 -9.5891664876764593e-07 0.0000000000000000e+00  -1.0415026960302418e-06 -7.5934884631888803e-09 0.0000000000000000e+00  -4.6800887540903462e-06 3.5266762436049934e-07 0.0000000000000000e+00  2.0499383897188200e-01 -1.7569664059995525e-02 0.0000000000000000e+00  7.6086904330657179e-02 3.7624787692345320e-02 0.0000000000000000e+00  -1.1658048315335625e-06 -1.9867112203647709e-07 0.0000000000000000e+00  -1.2972164501367689e-06 3.3072698275893564e-09 0.0000000000000000e+00  1.7957557212894881e-01 1.4347304899319840e-05 0.0000000000000000e+00  1.9038944610875405e-01 -2.2296994892379551e-07 0.0000000000000000e+00  -1.3732100985177390e-06 2.0720692618497503e-09 0.0000000000000000e+00  -1.7339095696197593e-06 4.8022626192226971e-09 0.0000000000000000e+00  -1.5268895442068839e-06 -5.2370407634511758e-09 0.0000000000000000e+00  -5.4325760897828358e-07 2.6394528226640743e-09 0.0000000000000000e+00  -5.5647838820819291e-07 -2.5195511286679393e-09 0.0000000000000000e+00  1.8898836150323777e-06 5.2192543321712384e-07 0.0000000000000000e+00  -2.7491000765753890e-06 -6.3708532269654581e-07 0.0000000000000000e+00  -1.0772020536347722e-06 3.0654373059557526e-09 0.0000000000000000e+00  -8.4429004588393373e-07 -3.0277166351137813e-08 0.0000000000000000e+00  -1.9867783761129483e-09 4.8126184613468578e-08 0.0000000000000000e+00  -2.6780838759742672e-07 -1.1684949624928919e-09 0.0000000000000000e+00  -1.7336612832438422e-06 6.2461954775171478e-09 0.0000000000000000e+00  -7.9250796228798200e-07 -3.2976022026067010e-09 0.0000000000000000e+00  1.5018564605170143e-01 -9.1104426391279553e-03 0.0000000000000000e+00  1.7094172676374686e-01 -1.1241753304068331e-04 0.0000000000000000e+00  1.7398299162793904e-01 -9.6476759075705878e-04 0.0000000000000000e+00  1.7533306399686893e-01 -1.0874594413317022e-06 0.0000000000000000e+00  2.9037153231518742e-01 1.0557540909690684e-01 0.0000000000000000e+00  2.8076028253364649e-01 4.1161371638883872e-02 0.0000000000000000e+00  3.1454559403182253e-01 3.0616871327631013e-02 0.0000000000000000e+00  1.7924752065388308e-01 -1.9970231175850581e-05 0.0000000000000000e+00  1.9045613058738861e-01 -1.4381226722951662e-05 0.0000000000000000e+00  1.9080384340437465e-01 -9.7059694990125629e-04 0.0000000000000000e+00  1.6718249617108319e-01 -8.5992825226797184e-06 0.0000000000000000e+00  1.9047179396991179e-01 -1.3657453993527191e-05 0.0000000000000000e+00  1.9045891224596079e-01 -1.4480105607791396e-05 0.0000000000000000e+00  1.9042245295396251e-01 -1.3101934204137116e-05 0.0000000000000000e+00  1.9045817750650670e-01 -4.7687808066101136e-06 0.0000000000000000e+00  1.7020917805572788e-01 -2.4582933287192530e-05 0.0000000000000000e+00  1.7518828960424573e-01 -7.1185053720474645e-06 0.0000000000000000e+00  2.2227712866332802e-01 1.4859463633581721e-01 0.0000000000000000e+00  2.5678778179341753e-02 5.5230046912941614e-03 0.0000000000000000e+00  1.6781157350269740e-01 -1.5671445730204483e-04 0.0000000000000000e+00  2.3309114752018489e-01 -1.0562078680087210e-02 0.0000000000000000e+00  1.8804134659568633e-01 -2.3437408016027468e-05 0.0000000000000000e+00  1.9045706573458154e-01 -7.4863053122004432e-06 0.0000000000000000e+00  1.9050584639105433e-01 -5.5084193483024766e-04 0.0000000000000000e+00  1.9042895667443868e-01 -5.2740095812013115e-06 0.0000000000000000e+00  1.7625781765374482e-01 -5.7512802263887758e-06 0.0000000000000000e+00  1.9043497244739691e-01 -5.8882598572383346e-05 0.0000000000000000e+00  1.9174084236733901e-01 -2.4165871138691203e-03 0.0000000000000000e+00  1.7257528919028656e-01 -1.9372199373741214e-05 0.0000000000000000e+00  1.9043963507327749e-01 -5.0669423253653777e-06 0.0000000000000000e+00  1.7096602175361122e-01 1.2638610406326564e-05 0.0000000000000000e+00  1.6119532313187646e-01 6.0157314599484341e-02 0.0000000000000000e+00  1.5884845559312777e-01 8.2265279221967927e-02 0.0000000000000000e+00  1.9501735882591820e-01 1.4638481161728141e-02 0.0000000000000000e+00  1.6336575791072899e-01 -3.7137011381608247e-04 0.0000000000000000e+00  1.9209732561648507e-01 -6.7467109406279657e-03 0.0000000000000000e+00  1.9083281108922320e-01 -7.2345043920953977e-04 0.0000000000000000e+00  3.7536179345451332e-01 2.8637668456100274e-02 0.0000000000000000e+00  1.9052222801550633e-01 -1.3722847538185065e-04 0.0000000000000000e+00  1.9049105431889696e-01 -2.1843982060877520e-04 0.0000000000000000e+00  3.4010017365762102e-01 1.4092084905614458e-01 0.0000000000000000e+00  3.0741106431595006e-01 3.2267031813873574e-02 0.0000000000000000e+00  2.3886764039146843e-01 7.2364785958635783e-02 0.0000000000000000e+00  1.9045607440514159e-01 5.1724633024544062e-06 0.0000000000000000e+00  1.9009134531223290e-01 -1.6621068498837989e-05 0.0000000000000000e+00  1.9046369426477985e-01 -1.7882811503308960e-05 0.0000000000000000e+00  2.2679029401292142e-01 -5.7327159772737855e-02 0.0000000000000000e+00  1.6104125205476549e-01 3.1837298101873732e-02 0.0000000000000000e+00  1.6454605981511672e-01 3.0010177140268262e-06 0.0000000000000000e+00  2.3771617415242102e-01 2.4645684131125264e-02 0.0000000000000000e+00  2.2437754254305350e-01 7.2573693423490682e-02 0.0000000000000000e+00  1.9032598207315343e-01 -8.1798179209529478e-05 0.0000000000000000e+00  1.7077950843708786e-01 -2.4280192567541544e-05 0.0000000000000000e+00  1.8298950350892768e-01 -8.4359335163443501e-04 0.0000000000000000e+00  4.5644851416203330e-01 1.2197229105226573e-02 0.0000000000000000e+00  1.8747858018849620e-01 -3.2412344175373866e-03 0.0000000000000000e+00  2.0505700645466424e-01 -8.0753523265633103e-03 0.0000000000000000e+00  1.9025243524985044e-01 -7.6877220940749328e-06 0.0000000000000000e+00  1.6689696651997965e-01 -2.9574250341432144e-03 0.0000000000000000e+00  1.9023933272952978e-01 -2.4312748071584380e-05 0.0000000000000000e+00  1.9047121423718866e-01 -6.7747237272639579e-05 0.0000000000000000e+00  1.8956087530868618e-01 -5.1758890083116686e-04 0.0000000000000000e+00  1.3735914452172213e-01 -3.4939911107575738e-03 0.0000000000000000e+00  1.4813297741825213e-01 -1.3348892538952475e-05 0.0000000000000000e+00  1.4749788376731354e-01 -1.4129312836820131e-04 0.0000000000000000e+00  1.7848061675119845e-01 -2.0708099532215030e-02 0.0000000000000000e+00  7.1220374086179136e-02 3.1009789061410324e-02 0.0000000000000000e+00  1.8995892147982565e-01 -5.3272262951879547e-06 0.0000000000000000e+00  1.5541862272623636e-01 7.4094606328975283e-06 0.0000000000000000e+00  3.9920738723399973e-01 -1.0188847586778967e-01 0.0000000000000000e+00  1.9042184653752792e-01 -5.6044700765486171e-06 0.0000000000000000e+00  1.9028511302704090e-01 -7.7956892799556839e-06 0.0000000000000000e+00  3.5785806440002628e-02 2.4399193979850139e-06 0.0000000000000000e+00  1.8230853458131815e-01 -8.3554113322241667e-03 0.0000000000000000e+00  1.6123740011285578e-01 4.6052381964158715e-02 0.0000000000000000e+00  1.9046951203740026e-01 -1.1724543431190287e-06 0.0000000000000000e+00  1.9016586169120725e-01 -1.4140199157946160e-05 0.0000000000000000e+00  1.4338722589463077e-01 -6.8156598031040249e-04 0.0000000000000000e+00  1.9448747984460873e-01 -3.5077445335148305e-03 0.0000000000000000e+00  3.7571954063110335e-01 3.9999871903061798e-02 0.0000000000000000e+00  1.6280683650431574e-01 2.9483175501726618e-05 0.0000000000000000e+00  1.4679772900729732e-01 1.6933064999951021e-05 0.0000000000000000e+00  1.5778535832657734e-01 -4.6254678735876230e-06 0.0000000000000000e+00  1.8982325396059187e-02 -3.0118821423668864e-02 0.0000000000000000e+00  3.3356412411486130e-01 -1.0235131846664733e-06 0.0000000000000000e+00  1.5410155353949706e-01 5.4326995981662388e-06 0.0000000000000000e+00  3.9313747324765663e-01 -1.3943376084761479e-02 0.0000000000000000e+00  1.6127269541465664e-01 2.3636427180317661e-05 0.0000000000000000e+00  1.9242234339944564e-01 -1.9825858154820389e-03 0.0000000000000000e+00  1.1852604489031200e-01 6.8430653534847883e-07 0.0000000000000000e+00  1.9044056133517473e-01 -1.6120377483693271e-05 0.0000000000000000e+00  1.5786478205340643e-01 -3.7467735999293824e-05 0.0000000000000000e+00  2.1733324551334862e-01 -1.5502840273493452e-06 0.0000000000000000e+00  1.5782242790373632e-01 -1.3577828622612919e-05 0.0000000000000000e+00  1.9021418336213275e-01 -5.8903209032234157e-05 0.0000000000000000e+00  1.9045036473842042e-01 -1.1571947357031033e-05 0.0000000000000000e+00  1.5375736295583528e-01 -6.8245938665649109e-05 0.0000000000000000e+00  1.3003677519492096e-01 -1.7069225945675454e-05 0.0000000000000000e+00  1.8930655745302902e-01 -2.0379402461806318e-04 0.0000000000000000e+00  1.2774548098459135e-01 -4.7742075873547510e-04 0.0000000000000000e+00  2.6053048730863748e-01 -2.5991692747165427e-02 0.0000000000000000e+00  2.0425359617728636e-01 -1.6559398801391626e-02 0.0000000000000000e+00  3.2485481668036109e-01 -9.0982668459801158e-02 0.0000000000000000e+00  1.4804801738674264e-01 -5.3322040212148636e-05 0.0000000000000000e+00  2.0721758979012536e-01 -3.4147272537969883e-02 0.0000000000000000e+00  1.8834738188126046e-01 -6.9285754160391825e-03 0.0000000000000000e+00  1.8971745327339312e-01 -1.0887717480647381e-05 0.0000000000000000e+00  1.8975973506661911e-01 -1.3994219749812770e-03 0.0000000000000000e+00  1.2994837418540650e-01 8.5213525046250721e-06 0.0000000000000000e+00  1.4692205672783035e-01 -1.220604272