<?xml version="1.0"?>
<VTKFile type="UnstructuredGrid"  version="0.1"  >
<UnstructuredGrid>
<Piece  NumberOfPoints="1404" NumberOfCells="2604">
<Points>
<DataArray  type="Float64"  NumberOfComponents="3"  format="ascii">0 0.41 0  0 0 0  2.2 0 0  2.2 0.41 0  0.2353553390593274 0.2353553390593274 0  0.25 0.2 0  0.2353553390593274 0.1646446609406726 0  0.2 0.15 0  0.1646446609406726 0.1646446609406726 0  0.15 0.2 0  0.1646446609406726 0.2353553390593274 0  0.2 0.25 0  0.6923879532511287 0.188268343236509 0  0.7 0.15 0  0.6923879532511287 0.1117316567634909 0  0.6707106781186547 0.07928932188134523 0  0.6382683432365089 0.05761204674887133 0  0.6 0.04999999999999999 0  0.5617316567634909 0.05761204674887134 0  0.5292893218813453 0.07928932188134524 0  0.5076120467488713 0.111731656763491 0  0.5 0.15 0  0.5076120467488713 0.188268343236509 0  0.5292893218813453 0.2207106781186547 0  0.561731656763491 0.2423879532511287 0  0.6 0.25 0  0.6382683432365089 0.2423879532511287 0  0.6707106781186547 0.2207106781186547 0  1.1 0 0  0 0.205 0  1.1 0.41 0  0.55 0 0  0.55 0.41 0  0.275 0 0  0.8250000000000001 0 0  0.275 0.41 0  0.8250000000000001 0.41 0  0.6875 0 0  0.61875 0 0  1.65 0.41 0  1.65 0 0  1.375 0 0  1.375 0.41 0  1.925 0 0  1.925 0.41 0  1.5125 0.205 0  1.7875 0.205 0  0.9625000000000001 0.205 0  1.2375 0.205 0  2.2 0.205 0  1.99375 0.2152743902439024 0  0.4125 0.41 0  2.0625 0 0  2.0625 0.41 0  2.2 0.3075 0  1.7875 0.41 0  1.375 0.1486128048780488 0  1.5125 0 0  1.7875 0 0  1.5125 0.41 0  0.9625000000000001 0.41 0  0.4125 0 0  0.1375 0 0  0.1375 0.41 0  0.6875 0.41 0  0.9625000000000001 0 0  1.2375 0 0  1.1 0.1486128048780488 0  1.2375 0.41 0  1.65 0.1486128048780487 0  0.823495464168302 0.2603780552348366 0  0.3738707794507017 0.2720196349488618 0  0.3662291281331582 0.1311456406657909 0  1.676715909090909 0.2793064024390244 0  1.126715909090909 0.2793064024390244 0  1.348284090909091 0.2793064024390244 0  0.8287581077665108 0.1302150898054257 0  1.894702181800738 0.1282910975492754 0  2.092797818199262 0.1282910975492754 0  1.85625 0.3075 0  0 0.3075 0  0 0.1025 0  2.099172119769978 0.25625 0  0.4752414543992246 0.3180372603390748 0  1.99375 0.08395950269330846 0  1.459960956013612 0.3075 0  1.569025960719943 0.2986889805672169 0  1.03125 0.3278689922742084 0  1.959375 0.3126371951219512 0  1.749222215368287 0.1025 0  1.275777784631713 0.1025 0  0.9228016959331474 0.3075 0  1.000777784631713 0.1025 0  2.2 0.1025 0  1.225938124459196 0.3075 0  1.550777784631713 0.1025 0  1.44375 0.07430640243902442 0  1.16875 0.07430640243902439 0  0.7562500000000001 0.3358727844323386 0  0.89375 0 0  1.899250267340833 0.2229966846119207 0  0.61875 0.41 0  1.766482954545455 0.2934032012195123 0  1.046078563095834 0.2389031808701145 0  1.421109702350723 0.2261157654379721 0  0.07567171807980319 0.25625 0  0.2511897295290552 0.3235829392832554 0  0.07655002503762308 0.1488653460959645 0  0.1377245246847496 0.3206030474919778 0  0.6694099692696568 0.3242771941727899 0  0.9168971191497528 0.1295727156104653 0  0.7562500000000001 0 0  2.118919042110979 0.3422084711244843 0  2.13125 0 0  0.06875000000000001 0 0  1.30625 0.41 0  1.597888256393107 0.2173787389261347 0  0.34375 0.41 0  0.2493272016354703 0.08091360081773515 0  0.5588896233436766 0.3264056208677571 0  1.829299675393195 0.07400700849299596 0  0.1334079128307869 0.08523463035786674 0  1.71875 0.41 0  0.06875000000000001 0.41 0  1.16875 0.41 0  2.038220665644273 0.332420740103091 0  0.8810647413215221 0.2027360103977071 0  0.34375 0 0  0.7453891198966415 0.2471459041008237 0  0.42112093004955 0.1988123139090554 0  0.8314023090855964 0.3351170841770613 0  0.89375 0.41 0  0.7906250000000001 0.06615386481594063 0  1.452769549894695 0.1548122580621249 0  1.369219062229598 0.07430640243902442 0  1.30625 0 0  1.07420695807087 0.07430640243902439 0  1.720943423819132 0.1714577452753128 0  1.157188124459196 0.205 0  1.304056576180868 0.1714577452753128 0  1.67579304192913 0.07430640243902437 0  1.209670467133757 0.136210026696477 0  0.4312800784902823 0.08036147352247747 0  0.8723959680194693 0.07066860609690805 0  1.025335513626278 0.1700681449722324 0  0.7945632284247136 0.1940204203251442 0  0.378125 0.3452261501101892 0  0.3307109909790086 0.2037165635083759 0  0.3009701032039409 0.2702970083403109 0  0.20625 0.41 0  1.58125 0 0  0.4812500000000001 0 0  0.9838963872396855 0.2722244191167347 0  0.06772484939107212 0.3260067317374387 0  0.20625 0 0  1.58125 0.41 0  1.631724228912893 0.3381867502687533 0  1.825608881788174 0.14499488549201 0  1.85625 0 0  1.44375 0 0  1.44375 0.41 0  1.85625 0.41 0  2.13125 0.41 0  0.7562500000000001 0.41 0  0.4812500000000001 0.41 0  1.16875 0 0  1.03125 0.41 0  1.03125 0 0  1.71875 0 0  1.99375 0 0  1.99375 0.41 0  0.9408708167433545 0.0651989315768642 0  1.340625 0.3489494290853124 0  1.134375 0.3489494290853123 0  1.700180620188976 0.3438659752031281 0  0.29668452290037 0.1318471691375986 0  0.3175441051360096 0.06496934809856265 0  0.06509151636162461 0.08140814015999148 0  2.135782184673599 0.07126652247502523 0  1.668441847249787 0.2129203728327609 0  1.295782514339747 0.2378437748815763 0  1.409375 0.3520314716057996 0  2.129248544730567 0.1906135162504124 0  2.060771381434487 0.1989445750470348 0  2.013252586573865 0.1496169464686054 0  1.942766402200229 0.1734448904596831 0  1.895522487186454 0.06076163953489683 0  2.069553871656643 0.06605731020975725 0  0.4670911801404742 0.2498408582391372 0  0.7622743084658112 0.1264100838268133 0  1.274680914880868 0.3520219391081363 0  0.3148669572599245 0.3331753056385887 0  1.614713220494657 0.09473434380863296 0  1.72990325744076 0.2380068107952482 0  1.356580098625191 0.2120393231351682 0  2.034370752044885 0.2668681600792073 0  1.51768709249349 0.3426260931494756 0  1.561883724969884 0.1650446847858835 0  1.197344062229598 0.2523725417393646 0  1.804085235518364 0.3468178408964637 0  1.817887819205233 0.2589243285818559 0  1.905897727272727 0.3485060975609756 0  0.7296439733931823 0.06337466644369745 0  0.4250935971865949 0.1394919578475796 0  0.3773030136511669 0.05130372097998036 0  1.192836486056382 0.3562350748565544 0  1.1029124365364 0.226143510831178 0  1.28257088594801 0.2944411014911587 0  0.1905185804731426 0.06029880676029167 0  1.474860187679412 0.2504218616229368 0  1.406767003493824 0.2829282258560709 0  0.5209826960981064 0.2830664557824064 0  0.5131119502780163 0.3617405848213254 0  0.1948220106098172 0.3081993407644811 0  1.845656689180403 0.1998310418452388 0  2.144958525570388 0.2909790873294231 0  2.2 0.15375 0  0.8833025251326762 0.2625402923007629 0  0.171875 0.3653875762360952 0  1.57794966442982 0.3540357145964566 0  0.446875 0.366068291212731 0  0.4272051715206439 0.2891929346190664 0  1.508991196088596 0.1421783375065625 0  1.50436820029908 0.06143401634903343 0  1.223857000523521 0.08235548624535324 0  0.6137904613287555 0.3066826366281556 0  1.153316824384777 0.1289850171317838 0  0.9751573703656133 0.327632618473408 0  2.148922302309752 0.1258841779285271 0  0.9281250000000001 0.3643758685795699 0  1.621993280276081 0.2841214267927899 0  1.550118654119087 0.2461998729100966 0  1.327182649291491 0.1216967252533594 0  0.9939955742738924 0.04663549843168518 0  1.753125 0.04556020050186112 0  1.271875 0.04556020050186116 0  0.9734326767716519 0.1506854560854393 0  0.103125 0.3675775577080512 0  1.94956388244759 0.1180512551534177 0  1.949997712993411 0.04965831614304109 0  0.717433898748555 0.295596016333797 0  1.771961817615021 0.1530278789497521 0  1.909246823951428 0.2812757146784527 0  0 0.35875 0  1.050632804931928 0.1226269704412814 0  0.05695108326502596 0.2024009637347154 0  1.948575539857022 0.2445328248721197 0  1.697271520964565 0.1233917627620729 0  1.065625 0.3689344961371042 0  1.085849084308977 0.3170853572226867 0  0.1015495998772944 0.04226029099983852 0  1.577403511714593 0.05463601888079143 0  1.751571320346033 0.3651102912045228 0  2.2 0.35875 0  0.7441773632462837 0.1786786606458751 0  0 0.05125 0  1.466879772203159 0.3611261772912453 0  0.6282230348858767 0.3577675483994025 0  1.990280163552011 0.3564754268533217 0  1.17471064520912 0.2990917256188288 0  0 0.25625 0  2.2 0.25625 0  2.2 0.05125 0  0 0.15375 0  1.853978576207987 0.35875 0  1.515638456102889 0.2882700110184686 0  2.150453692751374 0.2387066338105111 0  1.323782677156475 0.04897634338873398 0  1.409375 0.03715320121951221 0  1.406484531114799 0.1087852750766809 0  1.134375 0.03715320121951219 0  0.721875 0.3729363922161693 0  0.7941695928236929 0.3696489254637395 0  0.7934827162619036 0.3013409431456604 0  1.627401732573545 0.04552157221025036 0  0.9352049974617431 0.2507047965699472 0  0.8763260682738339 0.3611103317460093 0  2.045405893604797 0.1105340662939892 0  1.255408269734577 0.1577307500159216 0  2.028125 0.03707597992059326 0  1.003030137506755 0.3689344961371042 0  1.248258025468107 0.2565907092181813 0  1.203125 0.03661323374043041 0  0.4800125512335631 0.0549472816999725 0  2.072662025974815 0.2975086504196739 0  0.240625 0.3729825336867542 0  1.113252391110535 0.10238286244357 0  1.071052763974265 0.1885202618768825 0  0.8738809401657862 0.3106483608284829 0  0.6786819423003397 0.2677558482644021 0  1.887722846421017 0.1760882698830035 0  1.472640588990488 0.1118278026240017 0  0.5843750000000001 0.41 0  1.865937103925594 0.2604137786483804 0  1.463913572748262 0.2030442564990043 0  1.376426316059077 0.3186741374914345 0  0.1038643885363755 0.2162701735320032 0  0.1769473813227781 0.1070849728467114 0  0.458787839809176 0.171541653775316 0  0.240625 0 0  0.04179569703428024 0.2877217852556549 0  0.1258346557601885 0.2699740073054968 0  1.722140693354707 0.282908100935778 0  0.41206179117512 0.2448172567039922 0  0.3702471778075604 0.2265217604228704 0  0.3714881805374215 0.1786967818665642 0  1.77397096061971 0.2481483237422926 0  2.105123889160691 0.03743885948498647 0  1.001138337938679 0.229719337663998 0  1.051242910646791 0.2854826559431138 0  1.395420985247586 0.18
[...]
<PointData  Vectors="f_37"> 
<DataArray  type="Float64"  Name="f_37"  NumberOfComponents="3" format="ascii">2.5309514155950223e-07 4.9643830731433719e-08 0.0000000000000000e+00  -4.4427273501260996e-06 -3.6498151648979661e-07 0.0000000000000000e+00  -6.5778938971842806e-07 4.0624990852031686e-10 0.0000000000000000e+00  -8.6811138719589734e-07 7.6598876815779527e-11 0.0000000000000000e+00  3.7765561280456981e-08 1.9073729949467401e-07 0.0000000000000000e+00  2.2367890501548366e-07 -2.3150330348459707e-07 0.0000000000000000e+00  1.6213346612844448e-07 1.1434813208598351e-07 0.0000000000000000e+00  -9.0908348232935914e-07 -1.0229500882521043e-07 0.0000000000000000e+00  -7.3389203024122902e-07 -1.8256960530710140e-07 0.0000000000000000e+00  9.8678836254910827e-08 -5.9462284168114202e-07 0.0000000000000000e+00  -1.0154660829712733e-06 -5.3677433914839517e-07 0.0000000000000000e+00  -1.0851483100362406e-06 -2.1606577631857603e-07 0.0000000000000000e+00  3.0444391117847963e-07 5.8134972139430791e-07 0.0000000000000000e+00  -3.8139969308444136e-07 -2.1674289482357316e-07 0.0000000000000000e+00  -3.4310558785933656e-07 -6.3928921514834997e-09 0.0000000000000000e+00  -1.4235759026331892e-06 -4.9416920760754557e-07 0.0000000000000000e+00  1.8116675977400028e-06 4.1223354201015922e-07 0.0000000000000000e+00  3.4699249747689848e-01 9.6575862150746955e-02 0.0000000000000000e+00  2.0012489399947595e-06 5.0898729979144715e-07 0.0000000000000000e+00  -3.2498819663830208e-07 2.9015245482647863e-07 0.0000000000000000e+00  -1.4269907576969945e-06 1.0836546685170918e-07 0.0000000000000000e+00  -1.6519948267746807e-07 -4.8100150238615012e-07 0.0000000000000000e+00  -1.7886984661023216e-07 -4.8604269733028818e-07 0.0000000000000000e+00  -1.2901931630532833e-06 -1.7178288288175726e-06 0.0000000000000000e+00  -3.2656271544576576e-06 -9.2212335853767286e-07 0.0000000000000000e+00  -4.0779110227704509e-06 -3.3585373323016890e-08 0.0000000000000000e+00  -4.1721371926203988e-06 -1.2612662376700108e-07 0.0000000000000000e+00  -4.5738396744518302e-07 2.9576939546307798e-07 0.0000000000000000e+00  1.6432294624296271e-06 -4.2595943042397443e-07 0.0000000000000000e+00  1.6583343423734523e-01 -4.6670117710809374e-07 0.0000000000000000e+00  -2.4587675158740506e-07 2.1625032855147104e-07 0.0000000000000000e+00  3.0241602463145476e-06 6.3882342130891151e-07 0.0000000000000000e+00  -4.5776833496573127e-07 -9.2234749262935433e-08 0.0000000000000000e+00  4.5577766046270176e-07 5.4783447863433929e-08 0.0000000000000000e+00  -3.3659052164294677e-07 -3.9587341514507595e-09 0.0000000000000000e+00  -1.0033681349064907e-06 -1.7872448299072865e-08 0.0000000000000000e+00  -1.5557196692897482e-06 -3.5523586603274025e-08 0.0000000000000000e+00  -2.6348210240727264e-06 -5.1524912355028740e-07 0.0000000000000000e+00  -9.3213677928961323e-06 -1.0305530161036728e-06 0.0000000000000000e+00  -1.0035231220632721e-06 -1.2142517350332107e-08 0.0000000000000000e+00  -1.1840645676495056e-06 -1.7063211336650118e-08 0.0000000000000000e+00  -9.0228564213474233e-07 1.1731732451525831e-07 0.0000000000000000e+00  -1.3609958750612588e-06 -1.8894812587730218e-07 0.0000000000000000e+00  -4.9523983331114232e-07 -5.1319088566244105e-10 0.0000000000000000e+00  -6.6933016176517259e-08 -9.3693307297130324e-11 0.0000000000000000e+00  2.2146477120625238e-01 6.7820665328767755e-03 0.0000000000000000e+00  2.2130267067968631e-01 4.6494937561745905e-04 0.0000000000000000e+00  1.9495584877614569e-01 -1.3007841759172148e-02 0.0000000000000000e+00  2.8054407741162984e-01 -6.0550728153737146e-02 0.0000000000000000e+00  2.2132662060234831e-01 -5.5948151943128584e-06 0.0000000000000000e+00  2.2110217001029095e-01 1.5021016676328516e-05 0.0000000000000000e+00  3.5487173929446371e-07 2.3956351903059262e-08 0.0000000000000000e+00  1.7364670510714174e-07 3.3957511156148845e-10 0.0000000000000000e+00  -5.6108367986005152e-07 6.3783372695418949e-10 0.0000000000000000e+00  1.8814295831468511e-01 -1.1383686335471869e-05 0.0000000000000000e+00  -8.1510770400232789e-07 -3.0117859366911532e-09 0.0000000000000000e+00  2.2334642534656360e-01 -1.1731818260864717e-03 0.0000000000000000e+00  -1.0264654512038071e-06 -4.0453047659438102e-08 0.0000000000000000e+00  -1.0157152809751116e-06 -2.9452059678309298e-09 0.0000000000000000e+00  -9.5604293555925904e-07 -4.9715087865543850e-08 0.0000000000000000e+00  -5.6194069616588304e-07 -1.4345789099030202e-07 0.0000000000000000e+00  -4.7108514167755803e-07 -7.9335557411295983e-08 0.0000000000000000e+00  -7.9460408475096541e-07 -6.5626333315211425e-08 0.0000000000000000e+00  -4.1432517568256186e-07 -6.3349218696224757e-08 0.0000000000000000e+00  -2.3136042535869238e-06 1.2100462875967054e-07 0.0000000000000000e+00  1.8086092674313297e-06 -4.9131559814218221e-07 0.0000000000000000e+00  -2.6946754070359532e-06 4.5975687817735566e-07 0.0000000000000000e+00  1.6262564488869719e-01 -7.2191682719342620e-02 0.0000000000000000e+00  1.6967879258487632e-06 2.9624752616094647e-07 0.0000000000000000e+00  2.1479611581173588e-01 1.8349678727161785e-03 0.0000000000000000e+00  2.6420375793538509e-01 -3.4748469364401839e-02 0.0000000000000000e+00  1.0811938529557803e-01 4.0980767550696448e-03 0.0000000000000000e+00  3.0492487402847579e-01 1.0690765132373445e-01 0.0000000000000000e+00  2.0596939508453710e-01 1.1870047317094465e-03 0.0000000000000000e+00  3.0868265422281443e-01 -8.0273243221351334e-02 0.0000000000000000e+00  1.9725195357811606e-01 1.6474967273397888e-02 0.0000000000000000e+00  6.9727079190970265e-02 5.9186693424596523e-02 0.0000000000000000e+00  2.0568328211601344e-01 7.3736291836092158e-05 0.0000000000000000e+00  2.0561393434463165e-01 -3.1076739234499439e-07 0.0000000000000000e+00  1.8805009000343587e-01 8.1842224484323755e-05 0.0000000000000000e+00  7.5234907910525783e-02 4.3679416430285912e-08 0.0000000000000000e+00  2.7319255913125179e-01 -1.2295232501438877e-08 0.0000000000000000e+00  2.1534153491262017e-01 -6.2057055383947759e-06 0.0000000000000000e+00  2.3963076363378366e-01 7.1523694861694062e-02 0.0000000000000000e+00  1.6899521503963305e-01 7.9932662984579030e-07 0.0000000000000000e+00  1.7944394469047167e-01 7.6596223536169036e-03 0.0000000000000000e+00  1.9216889636110371e-01 2.9762006064218442e-03 0.0000000000000000e+00  2.8430146098171238e-01 -4.8218644971586767e-02 0.0000000000000000e+00  1.8345346698574203e-01 2.8540652368236641e-07 0.0000000000000000e+00  1.8850593863824128e-01 3.9624002221470622e-04 0.0000000000000000e+00  1.7797125319398646e-01 -3.4565580033151813e-02 0.0000000000000000e+00  3.9900666026217463e-01 -5.1866223024919118e-02 0.0000000000000000e+00  3.2836247611028012e-02 1.1719943662350889e-02 0.0000000000000000e+00  1.8807705464223365e-01 1.2442735923416597e-06 0.0000000000000000e+00  1.7818033918202958e-01 -1.2531446924078628e-02 0.0000000000000000e+00  1.9179003152161195e-01 3.1722442624488251e-03 0.0000000000000000e+00  1.6585858212777807e-01 3.3058809710368258e-03 0.0000000000000000e+00  7.3109597630882303e-02 -4.2443701821807372e-02 0.0000000000000000e+00  4.2906439119533973e-01 -3.4637024790407776e-02 0.0000000000000000e+00  3.0796414940234883e-07 -9.8884767750136604e-08 0.0000000000000000e+00  2.2065596251264202e-01 9.8796402244099175e-05 0.0000000000000000e+00  -9.1208980496493939e-07 6.0869890167437198e-08 0.0000000000000000e+00  1.9850865353296687e-01 3.7372063363070852e-04 0.0000000000000000e+00  3.4010740626527775e-01 -8.9694592394734540e-02 0.0000000000000000e+00  2.2161988405571997e-01 1.1654613580642867e-02 0.0000000000000000e+00  1.2576557760433935e-01 7.1440059620485441e-02 0.0000000000000000e+00  2.3154804115594588e-01 1.4348543197455928e-02 0.0000000000000000e+00  2.0873547645720975e-01 2.4638005008085839e-02 0.0000000000000000e+00  1.4774511703819429e-01 7.4211911473971826e-02 0.0000000000000000e+00  4.5863554682001417e-01 -1.1755863639238612e-02 0.0000000000000000e+00  6.6302800344503504e-02 3.7869502646649553e-02 0.0000000000000000e+00  -2.4776067642158911e-07 -9.5183712701674141e-08 0.0000000000000000e+00  1.4716020565241789e-01 -6.5397917342438306e-06 0.0000000000000000e+00  -1.6538431968654099e-06 -1.2979834646859205e-09 0.0000000000000000e+00  -1.2547419700830302e-06 6.0390227575243642e-09 0.0000000000000000e+00  -2.5334903769040450e-08 -1.6644678401440154e-07 0.0000000000000000e+00  2.2053328296529945e-01 3.4064698195060790e-03 0.0000000000000000e+00  -1.8086667109002312e-06 -9.8618671554578517e-10 0.0000000000000000e+00  4.0335530716379470e-01 4.2776181278184451e-02 0.0000000000000000e+00  3.7353301972555053e-01 7.7682377716247197e-02 0.0000000000000000e+00  1.5625817186626864e-01 7.1700164224955312e-05 0.0000000000000000e+00  3.4346106102564533e-01 1.3398361172794797e-02 0.0000000000000000e+00  -1.0257856738854156e-06 -7.7397224583042401e-09 0.0000000000000000e+00  -8.5666576048532611e-08 -2.6748028751892010e-09 0.0000000000000000e+00  1.4757526766389322e-06 4.1887872539870517e-07 0.0000000000000000e+00  1.6102266413329205e-01 -9.1034808654893941e-06 0.0000000000000000e+00  1.1826534156237643e-01 1.3031551371402475e-02 0.0000000000000000e+00  -3.1116404099007689e-07 -7.9512767327402673e-08 0.0000000000000000e+00  1.4158571680002049e-01 -2.3901461639016700e-02 0.0000000000000000e+00  1.5688915667505712e-01 1.4881242727430605e-01 0.0000000000000000e+00  3.9983350231120129e-01 -3.6373046700733359e-02 0.0000000000000000e+00  1.6441098757838765e-06 -2.1806733992028237e-07 0.0000000000000000e+00  1.0528600881223887e-01 5.0576057415096590e-02 0.0000000000000000e+00  2.2057659682823638e-01 6.8658331151809811e-03 0.0000000000000000e+00  1.6719846277629147e-01 -9.8966431258465035e-04 0.0000000000000000e+00  -1.5101202973147081e-06 3.1762816883307368e-07 0.0000000000000000e+00  1.2090777673109112e-02 -1.6692788290449623e-02 0.0000000000000000e+00  2.1920717937691120e-01 9.4982085237858404e-04 0.0000000000000000e+00  3.0418247668041870e-01 -1.0891603410761974e-01 0.0000000000000000e+00  2.4351662435166638e-01 -2.5350768824687692e-02 0.0000000000000000e+00  1.5750613386747175e-01 6.1591046874475786e-04 0.0000000000000000e+00  1.9759119745033296e-01 -7.9087199751885370e-02 0.0000000000000000e+00  2.3716570485008279e-01 2.4790302966848046e-02 0.0000000000000000e+00  4.4546740003330747e-02 2.4177273914134875e-02 0.0000000000000000e+00  1.6494483086959097e-01 -2.7546412555839801e-02 0.0000000000000000e+00  3.0481777263033166e-02 1.9242231226385551e-02 0.0000000000000000e+00  2.1094948685137535e-01 7.3346301292412288e-03 0.0000000000000000e+00  3.5705330374317321e-02 1.5914763789536147e-02 0.0000000000000000e+00  1.0288097686224604e-01 -2.0316335673146155e-02 0.0000000000000000e+00  -9.6978653806332661e-07 -1.3639608834066064e-07 0.0000000000000000e+00  -4.0352568112550182e-07 -2.3733027894527474e-08 0.0000000000000000e+00  -6.6117696517967845e-07 3.7486298253786711e-07 0.0000000000000000e+00  3.7585920480587931e-01 -6.9799938277627038e-02 0.0000000000000000e+00  7.8072685701796901e-02 3.1352236051086925e-02 0.0000000000000000e+00  -2.1814388775400456e-06 -1.0087779185129002e-07 0.0000000000000000e+00  -8.4945360077895957e-07 -2.1922577033948476e-08 0.0000000000000000e+00  1.5155763659990654e-01 8.8638573404327815e-04 0.0000000000000000e+00  2.1277111288690359e-01 2.2946282453976550e-04 0.0000000000000000e+00  -7.1214681307793382e-07 -8.0680448324089969e-10 0.0000000000000000e+00  -5.2379230274488934e-07 -4.2975335728933642e-08 0.0000000000000000e+00  -1.6241323828110899e-06 -1.1886896472875429e-07 0.0000000000000000e+00  -1.4629323015692785e-07 -5.9970024578343099e-10 0.0000000000000000e+00  -9.7460396805279789e-08 -2.6991572321049425e-11 0.0000000000000000e+00  4.0378271981003666e-07 -5.4232283119817039e-08 0.0000000000000000e+00  -2.1414517710335033e-06 -2.6380719225119187e-07 0.0000000000000000e+00  -2.3159501170559619e-06 2.1857519829605770e-07 0.0000000000000000e+00  -3.6975796772552738e-07 1.1710715798046390e-08 0.0000000000000000e+00  3.0826864732243118e-06 -7.1482493960303289e-07 0.0000000000000000e+00  1.4803897030478558e-07 -4.9619587052012208e-09 0.0000000000000000e+00  -9.0757426348661516e-07 4.9418985057618670e-10 0.0000000000000000e+00  -3.1235975711686052e-07 -1.0283767201448491e-10 0.0000000000000000e+00  9.9902598258095315e-03 1.7760185442006037e-02 0.0000000000000000e+00  1.0925304926735606e-01 8.6260789281840076e-03 0.0000000000000000e+00  1.3094862863874429e-01 -1.8356100843594909e-02 0.0000000000000000e+00  1.4399964598843459e-01 3.6051145383958049e-04 0.0000000000000000e+00  2.9179375070130181e-01 7.6482227012260956e-02 0.0000000000000000e+00  3.3613234666949687e-01 5.3753908135488596e-02 0.0000000000000000e+00  3.1538387569631143e-01 2.6387906903229681e-02 0.0000000000000000e+00  1.5224399774926922e-01 6.1868138940209501e-06 0.0000000000000000e+00  2.2101503118075677e-01 1.7383972582331322e-03 0.0000000000000000e+00  2.4445117884184536e-01 -5.5550537532521775e-03 0.0000000000000000e+00  1.1629509225271653e-01 5.6813634041537392e-03 0.0000000000000000e+00  2.2090877133131262e-01 -5.5298606114115942e-06 0.0000000000000000e+00  2.2123938672885926e-01 -5.2421786018609058e-06 0.0000000000000000e+00  2.1412492461660218e-01 -2.2070361475516960e-06 0.0000000000000000e+00  2.1924183893364302e-01 3.9490372102210199e-05 0.0000000000000000e+00  1.3600342657009937e-01 1.1467641484597565e-05 0.0000000000000000e+00  1.4444841618314810e-01 5.3087268107983456e-06 0.0000000000000000e+00  2.0101229310465066e-01 1.8982097382663191e-01 0.0000000000000000e+00  4.5425944065497222e-02 5.6061719676019230e-02 0.0000000000000000e+00  9.3011458120997953e-02 5.0736864302402662e-03 0.0000000000000000e+00  2.1989913567697525e-01 -5.5331476138133079e-03 0.0000000000000000e+00  1.8285193739373673e-01 1.6369466220377492e-03 0.0000000000000000e+00  2.1874696458785106e-01 8.4792574766489974e-04 0.0000000000000000e+00  2.3488636393768195e-01 5.9298924485672267e-03 0.0000000000000000e+00  2.1208120911246409e-01 5.7014209674181872e-07 0.0000000000000000e+00  1.4130030382986300e-01 2.6061498329398788e-03 0.0000000000000000e+00  2.1942659798768835e-01 4.3580334703295937e-03 0.0000000000000000e+00  2.8728066198592750e-01 -6.3944453396724540e-02 0.0000000000000000e+00  1.3984867900676967e-01 7.9526103214028901e-05 0.0000000000000000e+00  2.1444554884072017e-01 2.6336820503357989e-04 0.0000000000000000e+00  1.3722356967232482e-01 8.3408203133694590e-06 0.0000000000000000e+00  1.6095601094204898e-01 8.0842730284702471e-02 0.0000000000000000e+00  2.4682759995296552e-01 1.3008801611878690e-01 0.0000000000000000e+00  2.1825193379365415e-01 3.1009761288189736e-02 0.0000000000000000e+00  9.0035884894080598e-02 -6.8190863902034193e-03 0.0000000000000000e+00  3.3220568032604453e-01 -1.0960767608792701e-01 0.0000000000000000e+00  1.8480687814760333e-01 6.3374795485940261e-03 0.0000000000000000e+00  3.9211451864338176e-01 1.8221088294233873e-02 0.0000000000000000e+00  2.1346032149633409e-01 9.0430693217131014e-03 0.0000000000000000e+00  1.9543260309991448e-01 1.3855392179528629e-02 0.0000000000000000e+00  3.4291064978656205e-01 1.8407319281950385e-01 0.0000000000000000e+00  2.7487361874938349e-01 3.5945230412956039e-02 0.0000000000000000e+00  2.3194179520649394e-01 7.2330444857806722e-02 0.0000000000000000e+00  2.2126201890134281e-01 2.2380724693746098e-04 0.0000000000000000e+00  2.0044217130607497e-01 -1.6117951845106655e-05 0.0000000000000000e+00  2.1531458539601586e-01 1.0523012010094851e-07 0.0000000000000000e+00  3.0880128034263493e-01 -3.8778050327407956e-02 0.0000000000000000e+00  1.2593113395677055e-01 2.5535302143317576e-02 0.0000000000000000e+00  1.2525362595286590e-01 1.0883481434273087e-03 0.0000000000000000e+00  2.0818197597176125e-01 2.1380432629077701e-02 0.0000000000000000e+00  1.5944479689964741e-01 4.8061824386926078e-02 0.0000000000000000e+00  2.1539598435844781e-01 5.6263425208446733e-03 0.0000000000000000e+00  1.4297315120521875e-01 2.2484942976196296e-03 0.0000000000000000e+00  1.2546742348924222e-01 -4.2490911931579341e-02 0.0000000000000000e+00  4.6600985349133867e-01 4.4550972764037446e-02 0.0000000000000000e+00  1.5196655409864787e-01 -8.1859124402932637e-02 0.0000000000000000e+00  3.3491150586442275e-01 -4.7215541285333118e-02 0.0000000000000000e+00  2.0437044997499962e-01 6.0905072770528045e-06 0.0000000000000000e+00  2.2725590839066637e-01 -1.7763009289650303e-02 0.0000000000000000e+00  2.0272344677862461e-01 2.0089823372931069e-03 0.0000000000000000e+00  2.1567387923401665e-01 4.8947160845950457e-03 0.0000000000000000e+00  2.0813709653244902e-01 -1.6498104207072813e-02 0.0000000000000000e+00  -1.4815694464148587e-02 7.7659142336225532e-03 0.0000000000000000e+00  1.0869634562346565e-01 1.1163998442913685e-04 0.0000000000000000e+00  1.0243203405371137e-01 -1.0714123992108728e-02 0.0000000000000000e+00  9.9086405505420208e-02 1.6758634361536500e-02 0.0000000000000000e+00  6.2910970317421239e-02 1.7738232177782292e-02 0.0000000000000000e+00  1.9974620924105352e-01 1.8420312091601067e-05 0.0000000000000000e+00  1.1633665785671463e-01 -2.7008752085977644e-06 0.0000000000000000e+00  4.0435531780542938e-01 -3.8529320807769010e-02 0.0000000000000000e+00  2.1533768335413334e-01 4.8162812063884028e-04 0.0000000000000000e+00  2.0583423889620853e-01 4.3272759686642039e-05 0.0000000000000000e+00  3.5785435422651495e-02 8.7789427296542840e-08 0.0000000000000000e+00  7.6118104442561368e-02 -2.1588866428345094e-02 0.0000000000000000e+00  1.5903788121685769e-01 4.2223733825882723e-02 0.0000000000000000e+00  2.1793759086496667e-01 4.0230343989659246e-05 0.0000000000000000e+00  2.0373939894519377e-01 9.3446596600385036e-04 0.0000000000000000e+00  1.1633419385474325e-01 -1.1539020275676670e-02 0.0000000000000000e+00  2.6223845318231670e-01 -5.3460286346042732e-02 0.0000000000000000e+00  3.8082472419337043e-01 3.5730785784594710e-02 0.0000000000000000e+00  1.2820388679321310e-01 1.0892827390139585e-03 0.0000000000000000e+00  1.0695548372661683e-01 1.0086812797795930e-04 0.0000000000000000e+00  1.1929852182092449e-01 -9.4459968300299549e-06 0.0000000000000000e+00  -4.4324392563726512e-03 1.6152600064940868e-02 0.0000000000000000e+00  3.3356381182032013e-01 1.2101312746810269e-08 0.0000000000000000e+00  1.0678542154584912e-01 2.6747562774718215e-03 0.0000000000000000e+00  3.8942876459859932e-01 4.0849732954121379e-03 0.0000000000000000e+00  1.2350299369999745e-01 -5.1611895332279178e-06 0.0000000000000000e+00  2.2569392529782142e-01 -4.1548734144968145e-02 0.0000000000000000e+00  1.1852650750071932e-01 -4.8942649971199872e-08 0.0000000000000000e+00  2.1534643270830869e-01 3.9208693764898678e-06 0.0000000000000000e+00  1.1928213865774827e-01 8.2521835548877572e-06 0.0000000000000000e+00  2.1733316268288710e-01 -6.3583175736624288e-08 0.0000000000000000e+00  1.1931957770117717e-01 1.8553680677900895e-05 0.0000000000000000e+00  1.9744443662198422e-01 5.4185435331017577e-03 0.0000000000000000e+00  2.1893205532634444e-01 -1.6235823881074138e-06 0.0000000000000000e+00  1.2263457345279095e-01 -4.3556016912524552e-03 0.0000000000000000e+00  1.0092539567488895e-01 9.9511694841132223e-04 0.0000000000000000e+00  2.0225795177864808e-01 2.7776620634741931e-03 0.0000000000000000e+00  8.9462547551766632e-03 -1.2437197244469643e-02 0.0000000000000000e+00  3.1276963653842438e-01 -1.5924127454312955e-02 0.0000000000000000e+00  2.8734701059770906e-01 -1.7361089695587358e-02 0.0000000000000000e+00  4.1161189851789831e-01 -4.4889406267029620e-02 0.0000000000000000e+00  1.0979517558353223e-01 4.9794648300158781e-04 0.0000000000000000e+00  3.0234594810912463e-01 -4.2066120372777967e-02 0.0000000000000000e+00  2.7845063015904009e-01 -2.0342846938095713e-02 0.0000000000000000e+00  1.9455474425905478e-01 1.6241572068289380e-06 0.0000000000000000e+00  2.3850804984392485e-01 -5.7964491903277494e-02 0.0000000000000000e+00  9.1086386787775322e-02 2.6466636638624604e-06 0.0000000000000000e+00  1.5545944653809815e-01 -1.3680687935650590e-02 0.0000000000000000e+00  2.4967690780068300e-01 