<?xml version="1.0"?>
<VTKFile type="UnstructuredGrid"  version="0.1"  >
<UnstructuredGrid>
<Piece  NumberOfPoints="1404" NumberOfCells="2604">
<Points>
<DataArray  type="Float64"  NumberOfComponents="3"  format="ascii">0 0.41 0  0 0 0  2.2 0 0  2.2 0.41 0  0.2353553390593274 0.2353553390593274 0  0.25 0.2 0  0.2353553390593274 0.1646446609406726 0  0.2 0.15 0  0.1646446609406726 0.1646446609406726 0  0.15 0.2 0  0.1646446609406726 0.2353553390593274 0  0.2 0.25 0  0.6923879532511287 0.188268343236509 0  0.7 0.15 0  0.6923879532511287 0.1117316567634909 0  0.6707106781186547 0.07928932188134523 0  0.6382683432365089 0.05761204674887133 0  0.6 0.04999999999999999 0  0.5617316567634909 0.05761204674887134 0  0.5292893218813453 0.07928932188134524 0  0.5076120467488713 0.111731656763491 0  0.5 0.15 0  0.5076120467488713 0.188268343236509 0  0.5292893218813453 0.2207106781186547 0  0.561731656763491 0.2423879532511287 0  0.6 0.25 0  0.6382683432365089 0.2423879532511287 0  0.6707106781186547 0.2207106781186547 0  1.1 0 0  0 0.205 0  1.1 0.41 0  0.55 0 0  0.55 0.41 0  0.275 0 0  0.8250000000000001 0 0  0.275 0.41 0  0.8250000000000001 0.41 0  0.6875 0 0  0.61875 0 0  1.65 0.41 0  1.65 0 0  1.375 0 0  1.375 0.41 0  1.925 0 0  1.925 0.41 0  1.5125 0.205 0  1.7875 0.205 0  0.9625000000000001 0.205 0  1.2375 0.205 0  2.2 0.205 0  1.99375 0.2152743902439024 0  0.4125 0.41 0  2.0625 0 0  2.0625 0.41 0  2.2 0.3075 0  1.7875 0.41 0  1.375 0.1486128048780488 0  1.5125 0 0  1.7875 0 0  1.5125 0.41 0  0.9625000000000001 0.41 0  0.4125 0 0  0.1375 0 0  0.1375 0.41 0  0.6875 0.41 0  0.9625000000000001 0 0  1.2375 0 0  1.1 0.1486128048780488 0  1.2375 0.41 0  1.65 0.1486128048780487 0  0.823495464168302 0.2603780552348366 0  0.3738707794507017 0.2720196349488618 0  0.3662291281331582 0.1311456406657909 0  1.676715909090909 0.2793064024390244 0  1.126715909090909 0.2793064024390244 0  1.348284090909091 0.2793064024390244 0  0.8287581077665108 0.1302150898054257 0  1.894702181800738 0.1282910975492754 0  2.092797818199262 0.1282910975492754 0  1.85625 0.3075 0  0 0.3075 0  0 0.1025 0  2.099172119769978 0.25625 0  0.4752414543992246 0.3180372603390748 0  1.99375 0.08395950269330846 0  1.459960956013612 0.3075 0  1.569025960719943 0.2986889805672169 0  1.03125 0.3278689922742084 0  1.959375 0.3126371951219512 0  1.749222215368287 0.1025 0  1.275777784631713 0.1025 0  0.9228016959331474 0.3075 0  1.000777784631713 0.1025 0  2.2 0.1025 0  1.225938124459196 0.3075 0  1.550777784631713 0.1025 0  1.44375 0.07430640243902442 0  1.16875 0.07430640243902439 0  0.7562500000000001 0.3358727844323386 0  0.89375 0 0  1.899250267340833 0.2229966846119207 0  0.61875 0.41 0  1.766482954545455 0.2934032012195123 0  1.046078563095834 0.2389031808701145 0  1.421109702350723 0.2261157654379721 0  0.07567171807980319 0.25625 0  0.2511897295290552 0.3235829392832554 0  0.07655002503762308 0.1488653460959645 0  0.1377245246847496 0.3206030474919778 0  0.6694099692696568 0.3242771941727899 0  0.9168971191497528 0.1295727156104653 0  0.7562500000000001 0 0  2.118919042110979 0.3422084711244843 0  2.13125 0 0  0.06875000000000001 0 0  1.30625 0.41 0  1.597888256393107 0.2173787389261347 0  0.34375 0.41 0  0.2493272016354703 0.08091360081773515 0  0.5588896233436766 0.3264056208677571 0  1.829299675393195 0.07400700849299596 0  0.1334079128307869 0.08523463035786674 0  1.71875 0.41 0  0.06875000000000001 0.41 0  1.16875 0.41 0  2.038220665644273 0.332420740103091 0  0.8810647413215221 0.2027360103977071 0  0.34375 0 0  0.7453891198966415 0.2471459041008237 0  0.42112093004955 0.1988123139090554 0  0.8314023090855964 0.3351170841770613 0  0.89375 0.41 0  0.7906250000000001 0.06615386481594063 0  1.452769549894695 0.1548122580621249 0  1.369219062229598 0.07430640243902442 0  1.30625 0 0  1.07420695807087 0.07430640243902439 0  1.720943423819132 0.1714577452753128 0  1.157188124459196 0.205 0  1.304056576180868 0.1714577452753128 0  1.67579304192913 0.07430640243902437 0  1.209670467133757 0.136210026696477 0  0.4312800784902823 0.08036147352247747 0  0.8723959680194693 0.07066860609690805 0  1.025335513626278 0.1700681449722324 0  0.7945632284247136 0.1940204203251442 0  0.378125 0.3452261501101892 0  0.3307109909790086 0.2037165635083759 0  0.3009701032039409 0.2702970083403109 0  0.20625 0.41 0  1.58125 0 0  0.4812500000000001 0 0  0.9838963872396855 0.2722244191167347 0  0.06772484939107212 0.3260067317374387 0  0.20625 0 0  1.58125 0.41 0  1.631724228912893 0.3381867502687533 0  1.825608881788174 0.14499488549201 0  1.85625 0 0  1.44375 0 0  1.44375 0.41 0  1.85625 0.41 0  2.13125 0.41 0  0.7562500000000001 0.41 0  0.4812500000000001 0.41 0  1.16875 0 0  1.03125 0.41 0  1.03125 0 0  1.71875 0 0  1.99375 0 0  1.99375 0.41 0  0.9408708167433545 0.0651989315768642 0  1.340625 0.3489494290853124 0  1.134375 0.3489494290853123 0  1.700180620188976 0.3438659752031281 0  0.29668452290037 0.1318471691375986 0  0.3175441051360096 0.06496934809856265 0  0.06509151636162461 0.08140814015999148 0  2.135782184673599 0.07126652247502523 0  1.668441847249787 0.2129203728327609 0  1.295782514339747 0.2378437748815763 0  1.409375 0.3520314716057996 0  2.129248544730567 0.1906135162504124 0  2.060771381434487 0.1989445750470348 0  2.013252586573865 0.1496169464686054 0  1.942766402200229 0.1734448904596831 0  1.895522487186454 0.06076163953489683 0  2.069553871656643 0.06605731020975725 0  0.4670911801404742 0.2498408582391372 0  0.7622743084658112 0.1264100838268133 0  1.274680914880868 0.3520219391081363 0  0.3148669572599245 0.3331753056385887 0  1.614713220494657 0.09473434380863296 0  1.72990325744076 0.2380068107952482 0  1.356580098625191 0.2120393231351682 0  2.034370752044885 0.2668681600792073 0  1.51768709249349 0.3426260931494756 0  1.561883724969884 0.1650446847858835 0  1.197344062229598 0.2523725417393646 0  1.804085235518364 0.3468178408964637 0  1.817887819205233 0.2589243285818559 0  1.905897727272727 0.3485060975609756 0  0.7296439733931823 0.06337466644369745 0  0.4250935971865949 0.1394919578475796 0  0.3773030136511669 0.05130372097998036 0  1.192836486056382 0.3562350748565544 0  1.1029124365364 0.226143510831178 0  1.28257088594801 0.2944411014911587 0  0.1905185804731426 0.06029880676029167 0  1.474860187679412 0.2504218616229368 0  1.406767003493824 0.2829282258560709 0  0.5209826960981064 0.2830664557824064 0  0.5131119502780163 0.3617405848213254 0  0.1948220106098172 0.3081993407644811 0  1.845656689180403 0.1998310418452388 0  2.144958525570388 0.2909790873294231 0  2.2 0.15375 0  0.8833025251326762 0.2625402923007629 0  0.171875 0.3653875762360952 0  1.57794966442982 0.3540357145964566 0  0.446875 0.366068291212731 0  0.4272051715206439 0.2891929346190664 0  1.508991196088596 0.1421783375065625 0  1.50436820029908 0.06143401634903343 0  1.223857000523521 0.08235548624535324 0  0.6137904613287555 0.3066826366281556 0  1.153316824384777 0.1289850171317838 0  0.9751573703656133 0.327632618473408 0  2.148922302309752 0.1258841779285271 0  0.9281250000000001 0.3643758685795699 0  1.621993280276081 0.2841214267927899 0  1.550118654119087 0.2461998729100966 0  1.327182649291491 0.1216967252533594 0  0.9939955742738924 0.04663549843168518 0  1.753125 0.04556020050186112 0  1.271875 0.04556020050186116 0  0.9734326767716519 0.1506854560854393 0  0.103125 0.3675775577080512 0  1.94956388244759 0.1180512551534177 0  1.949997712993411 0.04965831614304109 0  0.717433898748555 0.295596016333797 0  1.771961817615021 0.1530278789497521 0  1.909246823951428 0.2812757146784527 0  0 0.35875 0  1.050632804931928 0.1226269704412814 0  0.05695108326502596 0.2024009637347154 0  1.948575539857022 0.2445328248721197 0  1.697271520964565 0.1233917627620729 0  1.065625 0.3689344961371042 0  1.085849084308977 0.3170853572226867 0  0.1015495998772944 0.04226029099983852 0  1.577403511714593 0.05463601888079143 0  1.751571320346033 0.3651102912045228 0  2.2 0.35875 0  0.7441773632462837 0.1786786606458751 0  0 0.05125 0  1.466879772203159 0.3611261772912453 0  0.6282230348858767 0.3577675483994025 0  1.990280163552011 0.3564754268533217 0  1.17471064520912 0.2990917256188288 0  0 0.25625 0  2.2 0.25625 0  2.2 0.05125 0  0 0.15375 0  1.853978576207987 0.35875 0  1.515638456102889 0.2882700110184686 0  2.150453692751374 0.2387066338105111 0  1.323782677156475 0.04897634338873398 0  1.409375 0.03715320121951221 0  1.406484531114799 0.1087852750766809 0  1.134375 0.03715320121951219 0  0.721875 0.3729363922161693 0  0.7941695928236929 0.3696489254637395 0  0.7934827162619036 0.3013409431456604 0  1.627401732573545 0.04552157221025036 0  0.9352049974617431 0.2507047965699472 0  0.8763260682738339 0.3611103317460093 0  2.045405893604797 0.1105340662939892 0  1.255408269734577 0.1577307500159216 0  2.028125 0.03707597992059326 0  1.003030137506755 0.3689344961371042 0  1.248258025468107 0.2565907092181813 0  1.203125 0.03661323374043041 0  0.4800125512335631 0.0549472816999725 0  2.072662025974815 0.2975086504196739 0  0.240625 0.3729825336867542 0  1.113252391110535 0.10238286244357 0  1.071052763974265 0.1885202618768825 0  0.8738809401657862 0.3106483608284829 0  0.6786819423003397 0.2677558482644021 0  1.887722846421017 0.1760882698830035 0  1.472640588990488 0.1118278026240017 0  0.5843750000000001 0.41 0  1.865937103925594 0.2604137786483804 0  1.463913572748262 0.2030442564990043 0  1.376426316059077 0.3186741374914345 0  0.1038643885363755 0.2162701735320032 0  0.1769473813227781 0.1070849728467114 0  0.458787839809176 0.171541653775316 0  0.240625 0 0  0.04179569703428024 0.2877217852556549 0  0.1258346557601885 0.2699740073054968 0  1.722140693354707 0.282908100935778 0  0.41206179117512 0.2448172567039922 0  0.3702471778075604 0.2265217604228704 0  0.3714881805374215 0.1786967818665642 0  1.77397096061971 0.2481483237422926 0  2.105123889160691 0.03743885948498647 0  1.001138337938679 0.229719337663998 0  1.051242910646791 0.2854826559431138 0  1.395420985247586 0.18
[...]
<PointData  Vectors="f_37"> 
<DataArray  type="Float64"  Name="f_37"  NumberOfComponents="3" format="ascii">1.6643624420471379e-07 -7.9291354116652946e-08 0.0000000000000000e+00  -4.4103952301646920e-06 -3.9710848946143630e-07 0.0000000000000000e+00  -9.4940784063473147e-07 1.5496857996522462e-09 0.0000000000000000e+00  -1.1935497824524529e-06 -9.8342528391524090e-10 0.0000000000000000e+00  2.6681211756946056e-07 8.3585131758867892e-07 0.0000000000000000e+00  2.3803454216745366e-07 1.8547994541288696e-06 0.0000000000000000e+00  -3.0556204013772555e-08 7.7465324375816096e-07 0.0000000000000000e+00  -2.4961020444209456e-06 -2.4189402462301300e-07 0.0000000000000000e+00  6.1142105282587294e-08 4.6246605787074175e-07 0.0000000000000000e+00  -3.6724173782694995e-07 -1.2340265314160361e-06 0.0000000000000000e+00  -8.8669469277524217e-07 -1.7685565262771840e-07 0.0000000000000000e+00  9.9477732981517367e-08 -7.7536891602201280e-08 0.0000000000000000e+00  1.6184861296003702e-06 -4.5599358428679804e-06 0.0000000000000000e+00  -2.1040868885834730e-08 -5.1846609873495761e-06 0.0000000000000000e+00  -6.9825304191260649e-07 -2.4509192343757999e-06 0.0000000000000000e+00  -7.2868114585416169e-07 7.2549989279743410e-07 0.0000000000000000e+00  3.1041384684882318e-06 1.3046213514469556e-06 0.0000000000000000e+00  3.0963322395220222e-01 8.4987100807055516e-02 0.0000000000000000e+00  5.0336698443727157e-06 2.9589568591402757e-06 0.0000000000000000e+00  4.9971546179094434e-06 1.2553946861128933e-06 0.0000000000000000e+00  -1.8358511414583380e-06 -5.9355132890906372e-06 0.0000000000000000e+00  1.0165011114114485e-07 4.2669491132451740e-06 0.0000000000000000e+00  6.3972175485905379e-06 7.0702445272751476e-06 0.0000000000000000e+00  5.3984681152690885e-06 -4.9280915030900782e-06 0.0000000000000000e+00  -5.1693841069837955e-06 -6.9355884955269142e-06 0.0000000000000000e+00  -9.2987914501732681e-06 -7.5875690919418570e-07 0.0000000000000000e+00  -6.7010367672924550e-06 2.0224419518586645e-06 0.0000000000000000e+00  8.0615463719606906e-07 -1.3003644561112441e-06 0.0000000000000000e+00  -1.4468729006713950e-06 1.3342226840979042e-07 0.0000000000000000e+00  1.6583337220221170e-01 -2.6694038692060115e-07 0.0000000000000000e+00  -2.1748651962103650e-06 -6.4169796076446536e-08 0.0000000000000000e+00  6.2298669309755875e-06 2.4102174453748903e-06 0.0000000000000000e+00  -9.5155619388727457e-07 -3.1267407150468129e-07 0.0000000000000000e+00  1.7182306628763271e-07 1.1430665393448216e-07 0.0000000000000000e+00  2.5072909784392961e-07 -8.9502010587145067e-08 0.0000000000000000e+00  -2.2346826786656557e-06 -3.8268423007695879e-07 0.0000000000000000e+00  -3.8420836599445254e-08 3.5978568021895693e-07 0.0000000000000000e+00  -1.9781777177120412e-06 -4.0794737922310479e-07 0.0000000000000000e+00  -6.6691459606441881e-06 -4.5593042203325168e-07 0.0000000000000000e+00  -1.3337035063286103e-06 2.1868523972835778e-10 0.0000000000000000e+00  -1.7311230536672692e-06 -1.8489266045102553e-09 0.0000000000000000e+00  -1.0111312334910534e-06 -4.6379525823484989e-09 0.0000000000000000e+00  -6.0848051999252243e-07 -6.1501648070380920e-09 0.0000000000000000e+00  -7.9992613461044457e-07 3.0948172635840255e-10 0.0000000000000000e+00  -2.5294142582112112e-07 -8.2083168329332499e-10 0.0000000000000000e+00  2.0270638127398061e-01 2.8243112445195872e-05 0.0000000000000000e+00  2.0270116373743696e-01 2.4274128157801129e-05 0.0000000000000000e+00  2.2066771769894050e-01 -9.0562566163139360e-02 0.0000000000000000e+00  2.0320963981066154e-01 -3.0590105327881331e-03 0.0000000000000000e+00  2.0271651652666886e-01 -1.1809397364237584e-05 0.0000000000000000e+00  2.0269680892957301e-01 4.3758265053078630e-06 0.0000000000000000e+00  -6.5399368372152708e-07 5.0572948334019802e-08 0.0000000000000000e+00  -7.7309650048414759e-08 1.1744820195856793e-09 0.0000000000000000e+00  -8.6727975030036780e-07 2.1860774505336527e-09 0.0000000000000000e+00  1.9342482818980311e-01 -1.2604345385456033e-07 0.0000000000000000e+00  -1.1883988775919346e-06 -7.9002319291062800e-10 0.0000000000000000e+00  2.0159196456266473e-01 -2.6289419999846609e-04 0.0000000000000000e+00  -1.6894511544851624e-06 -1.9594041877870672e-09 0.0000000000000000e+00  -1.4187708663865963e-06 -6.2163852116420115e-10 0.0000000000000000e+00  -9.5997595005766465e-07 -2.8238845435084224e-09 0.0000000000000000e+00  -2.1333301880903011e-07 -5.8494726935299320e-08 0.0000000000000000e+00  3.2952287576177231e-07 -4.4384215263780518e-07 0.0000000000000000e+00  -9.0811988049098217e-07 1.1229415360433398e-08 0.0000000000000000e+00  1.0055672324086933e-06 6.1068227385395818e-07 0.0000000000000000e+00  -1.1106278183806866e-06 -1.1421678941055049e-07 0.0000000000000000e+00  -3.2808265125918012e-06 3.3463125494186710e-07 0.0000000000000000e+00  6.3452179592219367e-07 3.7760728908253530e-09 0.0000000000000000e+00  1.9408225484679378e-01 -1.7448476873196624e-02 0.0000000000000000e+00  -5.9056224116433418e-07 -1.0198988335002112e-08 0.0000000000000000e+00  2.0191246156391271e-01 3.9069655535683334e-05 0.0000000000000000e+00  3.4398193079282685e-01 -1.1131828394388751e-01 0.0000000000000000e+00  9.9749411852295050e-02 1.8839888923602065e-02 0.0000000000000000e+00  3.0514280007074623e-01 1.2793180983202687e-01 0.0000000000000000e+00  2.0039535505418510e-01 3.5542824832970385e-05 0.0000000000000000e+00  2.1030973823388757e-01 -5.1070377867096462e-03 0.0000000000000000e+00  2.0092284110210218e-01 -2.0249861654148883e-04 0.0000000000000000e+00  3.4855778920136818e-02 6.9719597695426412e-03 0.0000000000000000e+00  2.0009081911082632e-01 2.2814686723273308e-05 0.0000000000000000e+00  2.0004769388205959e-01 1.2834701131131867e-06 0.0000000000000000e+00  1.9342846936668731e-01 9.5860391354930769e-06 0.0000000000000000e+00  7.5234811221735073e-02 1.5407015828125146e-07 0.0000000000000000e+00  2.7319261191431665e-01 2.6083985233140143e-08 0.0000000000000000e+00  2.0212621671336287e-01 -2.2967879972320813e-06 0.0000000000000000e+00  2.6919699323426388e-01 8.6965843002369120e-02 0.0000000000000000e+00  1.8252102849663143e-01 -2.1035467411228934e-06 0.0000000000000000e+00  1.9342075337978243e-01 9.3598707313111517e-05 0.0000000000000000e+00  1.9649124697655670e-01 7.4726155454895094e-05 0.0000000000000000e+00  1.9674890341817269e-01 -8.4127778677557414e-04 0.0000000000000000e+00  1.9110042386479476e-01 -2.8737739076600295e-06 0.0000000000000000e+00  1.9347038864183588e-01 4.6034812928713135e-06 0.0000000000000000e+00  1.9218699645871254e-01 -7.6195039815385316e-04 0.0000000000000000e+00  2.9173996665674995e-01 -5.3471720349604290e-02 0.0000000000000000e+00  1.5225760052296855e-01 -3.2464464471601853e-02 0.0000000000000000e+00  1.9343890565847499e-01 -7.0872796620475533e-06 0.0000000000000000e+00  1.9561609747012357e-01 -5.7983242732625388e-04 0.0000000000000000e+00  1.9340254940236604e-01 6.4537776889476289e-05 0.0000000000000000e+00  1.7376038116823789e-01 1.0179711460287655e-04 0.0000000000000000e+00  1.6948150428465847e-01 -2.5128140724394259e-03 0.0000000000000000e+00  4.1128144844155784e-01 -6.4964245420307071e-02 0.0000000000000000e+00  -2.0857741774887654e-06 2.3774470672017680e-07 0.0000000000000000e+00  2.0267805082161267e-01 1.0057371731160722e-05 0.0000000000000000e+00  2.3166968264092087e-07 -1.8063740643204074e-07 0.0000000000000000e+00  1.9785071178665325e-01 4.2756884246540107e-05 0.0000000000000000e+00  2.2622593728043905e-01 -2.8824395688230430e-02 0.0000000000000000e+00  2.0273536524299371e-01 -1.1169795924427722e-04 0.0000000000000000e+00  1.2644241101286269e-01 6.8820309485604234e-02 0.0000000000000000e+00  2.3155270258308769e-01 2.3661628482938856e-02 0.0000000000000000e+00  2.0928086545044272e-01 2.3492356936089913e-02 0.0000000000000000e+00  1.4873440146951128e-01 7.4601888323598098e-02 0.0000000000000000e+00  4.6557923762890607e-01 -3.4336634513046048e-02 0.0000000000000000e+00  1.0731723602139524e-01 -5.9280748937615715e-02 0.0000000000000000e+00  4.8837487730287705e-07 -2.3412005976515171e-07 0.0000000000000000e+00  1.6611261561798296e-01 8.1712499432731472e-06 0.0000000000000000e+00  -2.1094199213777735e-06 -5.0320012419218463e-09 0.0000000000000000e+00  -1.2497733340349648e-06 1.5081857566817352e-08 0.0000000000000000e+00  -4.1645371650553735e-07 -1.9412557600678120e-09 0.0000000000000000e+00  2.0267952703116807e-01 5.6321879939846701e-05 0.0000000000000000e+00  -2.2297312324576509e-06 -1.4361078650392769e-07 0.0000000000000000e+00  4.0267075586422185e-01 5.0601793684157549e-02 0.0000000000000000e+00  4.0287408209948650e-01 7.2020256986758707e-02 0.0000000000000000e+00  1.7338846797988253e-01 -4.0969190954372503e-06 0.0000000000000000e+00  3.4468430158863522e-01 1.3944624585145754e-02 0.0000000000000000e+00  -1.4025460423009710e-06 -3.8393761168431165e-10 0.0000000000000000e+00  4.7815856858770807e-07 5.1898712699140215e-08 0.0000000000000000e+00  -1.3154904899314265e-06 -1.3682036970807785e-08 0.0000000000000000e+00  1.7694879291077723e-01 -2.8419511035398118e-06 0.0000000000000000e+00  1.9246320638950903e-01 -1.1202958119603210e-01 0.0000000000000000e+00  -2.0494819973403007e-07 -3.2716544948372839e-07 0.0000000000000000e+00  2.0683049132146525e-01 -4.3506460416277475e-02 0.0000000000000000e+00  1.7210583260556908e-01 1.7751915384850595e-01 0.0000000000000000e+00  3.3294938449056516e-01 -6.4034116508629307e-02 0.0000000000000000e+00  3.3289835601802959e-06 3.2451097499470830e-07 0.0000000000000000e+00  9.5407898625112800e-02 3.8098030190040558e-02 0.0000000000000000e+00  2.0209026751589643e-01 -1.0829487785270586e-06 0.0000000000000000e+00  1.7370964068069966e-01 5.9723804904696263e-05 0.0000000000000000e+00  -2.3458781820637440e-08 -2.5342746366779320e-09 0.0000000000000000e+00  1.5771895475574765e-01 -9.7582885251735925e-03 0.0000000000000000e+00  2.0252634745190701e-01 2.5271100694372019e-05 0.0000000000000000e+00  2.0468894281697014e-01 -8.7503245662692818e-03 0.0000000000000000e+00  2.0210036656162433e-01 -1.1619414998675507e-03 0.0000000000000000e+00  1.7366181702713343e-01 2.7270388388344402e-05 0.0000000000000000e+00  1.9818178624730892e-01 -3.7125818969750419e-03 0.0000000000000000e+00  2.0529165283136563e-01 1.6786932826698155e-02 0.0000000000000000e+00  7.7612771800748506e-02 -6.3970861609256077e-03 0.0000000000000000e+00  1.9349945259660814e-01 -4.6114960740233774e-02 0.0000000000000000e+00  7.1919435687175556e-02 -1.0386960419376905e-02 0.0000000000000000e+00  2.2157012956495520e-01 7.0579996275662417e-03 0.0000000000000000e+00  5.2123168422989447e-02 3.2586505620924230e-02 0.0000000000000000e+00  8.2740072122194780e-02 -2.1713924479338637e-02 0.0000000000000000e+00  -1.1462883797030821e-06 2.9321453486722939e-07 0.0000000000000000e+00  -8.1611748149057724e-07 -2.6700937440421367e-09 0.0000000000000000e+00  -5.1251393387212852e-07 6.2224024227058120e-07 0.0000000000000000e+00  2.6428144127611564e-01 -4.2756171052250068e-02 0.0000000000000000e+00  7.8327049907175941e-02 2.7163115680080896e-02 0.0000000000000000e+00  -2.3526499724964741e-06 -1.7965481510919097e-08 0.0000000000000000e+00  -1.0139987747379050e-06 -6.8354134108133782e-10 0.0000000000000000e+00  1.7087920887906805e-01 3.8078787110903179e-05 0.0000000000000000e+00  2.0165117968903779e-01 1.5286678718988248e-05 0.0000000000000000e+00  -1.0432257329180340e-06 3.1957856568504722e-10 0.0000000000000000e+00  -1.2819137592067512e-06 -2.6621830993935812e-09 0.0000000000000000e+00  -1.1877408622195661e-06 -3.8328260320090428e-09 0.0000000000000000e+00  -3.5636442401896422e-07 1.9870249768187412e-10 0.0000000000000000e+00  -3.3131773196832310e-07 -6.4467497189724257e-10 0.0000000000000000e+00  1.3623077363582094e-06 -1.6559127498009344e-07 0.0000000000000000e+00  -3.9811996633787375e-06 -3.1846788665619762e-07 0.0000000000000000e+00  -7.5872983101925405e-07 6.0347164981798474e-08 0.0000000000000000e+00  -1.9757246052016783e-06 -1.2751000995111219e-07 0.0000000000000000e+00  -1.4875935977718970e-06 2.0971981812730244e-07 0.0000000000000000e+00  -4.0626403594361221e-08 -1.5076287193932884e-09 0.0000000000000000e+00  -1.3322795855430103e-06 1.7469700421586856e-09 0.0000000000000000e+00  -5.6244349437705653e-07 -7.5328956280721359e-10 0.0000000000000000e+00  1.0025480576765668e-01 -1.9962545812090195e-02 0.0000000000000000e+00  1.5661168240540604e-01 1.5460939403690721e-04 0.0000000000000000e+00  1.5811313073361291e-01 5.9642066655656272e-04 0.0000000000000000e+00  1.6395978492822585e-01 1.8229316696067219e-05 0.0000000000000000e+00  3.0601112195812064e-01 9.2279585114671769e-02 0.0000000000000000e+00  3.1966133970203658e-01 6.0099805179645610e-02 0.0000000000000000e+00  3.1567193892503770e-01 2.6102062019094475e-02 0.0000000000000000e+00  1.7031816373423295e-01 4.5683570441169818e-06 0.0000000000000000e+00  2.0269324919232143e-01 4.3501869800236484e-05 0.0000000000000000e+00  2.0330160807338019e-01 -1.1100323754691882e-03 0.0000000000000000e+00  1.5186407479741390e-01 1.0500145916712588e-04 0.0000000000000000e+00  2.0269792883507809e-01 -7.0493484650888651e-06 0.0000000000000000e+00  2.0270588369193962e-01 -4.1340543125110228e-06 0.0000000000000000e+00  2.0191649698948655e-01 1.3480194461144078e-06 0.0000000000000000e+00  2.0255991710778451e-01 5.8902265980128064e-06 0.0000000000000000e+00  1.5650439413364742e-01 -3.1600706685712352e-07 0.0000000000000000e+00  1.6386650338888939e-01 3.1228162350299673e-06 0.0000000000000000e+00  2.1102937995175275e-01 2.0225156680963616e-01 0.0000000000000000e+00  1.2608353696550754e-02 5.8687776443915027e-02 0.0000000000000000e+00  1.5186395711613093e-01 1.9455835272054291e-04 0.0000000000000000e+00  2.2454409838020056e-01 -8.2398117115745160e-03 0.0000000000000000e+00  1.8977836759336644e-01 4.7986563922142291e-05 0.0000000000000000e+00  2.0254002551713560e-01 2.9139339413805719e-05 0.0000000000000000e+00  2.0282001255756510e-01 -4.9733883266934813e-04 0.0000000000000000e+00  2.0160599185917727e-01 4.6988671439979598e-06 0.0000000000000000e+00  1.6541864112763199e-01 8.7540272468238014e-05 0.0000000000000000e+00  2.0243417247920992e-01 5.2382031735159864e-05 0.0000000000000000e+00  2.0580933436750884e-01 -3.5907893168892462e-03 0.0000000000000000e+00  1.5994691742713696e-01 5.1612296289063847e-06 0.0000000000000000e+00  2.0200156724282792e-01 2.1066025441839232e-05 0.0000000000000000e+00  1.5755355127163559e-01 -1.3010834988988483e-06 0.0000000000000000e+00  1.4073530200804954e-01 7.2554557755155832e-02 0.0000000000000000e+00  2.2915488769205980e-01 1.3036164759761532e-01 0.0000000000000000e+00  1.9291558047779633e-01 2.9815053248594785e-02 0.0000000000000000e+00  1.4494022859151101e-01 3.5181664481203251e-04 0.0000000000000000e+00  2.1151843139419943e-01 -1.5430058292424878e-02 0.0000000000000000e+00  1.9884021939030491e-01 -4.2325958475422388e-04 0.0000000000000000e+00  3.9189741666237898e-01 2.1064114809254006e-02 0.0000000000000000e+00  2.0235044141179048e-01 2.9187672631024128e-05 0.0000000000000000e+00  2.0007207039727792e-01 7.0004681613577680e-07 0.0000000000000000e+00  3.4594025674613132e-01 1.7490338537760974e-01 0.0000000000000000e+00  3.0362663622284175e-01 3.9062148984474458e-02 0.0000000000000000e+00  2.3298180366506860e-01 8.2968327087619836e-02 0.0000000000000000e+00  2.0269651028216079e-01 2.1629602579475831e-05 0.0000000000000000e+00  1.9849548694054889e-01 -1.4365264181393250e-05 0.0000000000000000e+00  2.0213810175118879e-01 -6.1155315428179463e-06 0.0000000000000000e+00  3.3795806966249448e-01 -1.1748980769235658e-01 0.0000000000000000e+00  1.2187583991013237e-01 2.9952011407024564e-02 0.0000000000000000e+00  1.4877914231974695e-01 4.8622559964370767e-05 0.0000000000000000e+00  2.2575001796154234e-01 2.5595092427794015e-02 0.0000000000000000e+00  1.7350688482107762e-01 7.2877491586020651e-02 0.0000000000000000e+00  2.0148355212338698e-01 5.9876147475124778e-05 0.0000000000000000e+00  1.5763003071882267e-01 6.3005430635940967e-05 0.0000000000000000e+00  1.7916913074667326e-01 -1.1938159120018488e-03 0.0000000000000000e+00  4.6768788739505696e-01 2.5874131963438095e-02 0.0000000000000000e+00  1.9424444673702126e-01 -7.6724465597979808e-03 0.0000000000000000e+00  2.1485111488618158e-01 -1.0375258470548012e-02 0.0000000000000000e+00  1.9972849102919565e-01 4.1123863838522753e-06 0.0000000000000000e+00  1.3950265002126369e-01 -7.4368653739793518e-03 0.0000000000000000e+00  1.9965794527362321e-01 4.5033457798404742e-05 0.0000000000000000e+00  2.0240163552330381e-01 5.6922217554928521e-05 0.0000000000000000e+00  1.9830955602615538e-01 -4.4068763919348958e-04 0.0000000000000000e+00  1.0042336200335922e-01 -1.0260624079425091e-02 0.0000000000000000e+00  1.2956576206921638e-01 -1.1966489036114828e-06 0.0000000000000000e+00  1.2981919326743294e-01 -3.1874282542761641e-05 0.0000000000000000e+00  1.6287578023350541e-01 -6.6538133043046649e-02 0.0000000000000000e+00  5.7752361155831732e-02 1.5380362773765199e-02 0.0000000000000000e+00  1.9817938102991067e-01 4.0104114769913863e-06 0.0000000000000000e+00  1.3768535365347268e-01 5.7781879033635566e-06 0.0000000000000000e+00  4.2601473867408485e-01 -6.7929110157618017e-02 0.0000000000000000e+00  2.0207629365476398e-01 1.7035964503187077e-05 0.0000000000000000e+00  2.0011635957920917e-01 -4.8558582357888602e-06 0.0000000000000000e+00  3.5785292272636139e-02 9.7743336318838771e-08 0.0000000000000000e+00  1.7820076620804809e-01 -2.5825345382538722e-02 0.0000000000000000e+00  1.5924636028646344e-01 4.0749316769221111e-02 0.0000000000000000e+00  2.0244903248984358e-01 9.7662861975838164e-06 0.0000000000000000e+00  1.9934212401555182e-01 2.9031002085504302e-05 0.0000000000000000e+00  1.1722745096466858e-01 1.5898844215797444e-03 0.0000000000000000e+00  1.9956892330017548e-01 -1.2979420488557604e-03 0.0000000000000000e+00  3.8103508743881148e-01 3.5928803707295155e-02 0.0000000000000000e+00  1.4678120996929395e-01 4.9132450613363697e-05 0.0000000000000000e+00  1.2809678245964556e-01 1.5417263479604486e-05 0.0000000000000000e+00  1.4054706585616680e-01 2.1775398195568879e-07 0.0000000000000000e+00  -3.1584466479855069e-03 5.0063745955097341e-02 0.0000000000000000e+00  3.3356385315358561e-01 -3.1382092419663975e-08 0.0000000000000000e+00  1.3587166528124844e-01 8.3332020785062562e-05 0.0000000000000000e+00  4.1092645644391818e-01 -6.6846042605980807e-03 0.0000000000000000e+00  1.4471163631668160e-01 7.1076068266123086e-06 0.0000000000000000e+00  2.0119921293806298e-01 -1.6097529282922106e-03 0.0000000000000000e+00  1.1852649926495767e-01 1.7092175206127320e-07 0.0000000000000000e+00  2.0212728952686751e-01 -8.3685143148451797e-07 0.0000000000000000e+00  1.4058859386227501e-01 9.7846034790344276e-06 0.0000000000000000e+00  2.1733314419262725e-01 5.1781275780578730e-08 0.0000000000000000e+00  1.4060146186064115e-01 -3.9718493137949289e-06 0.0000000000000000e+00  1.9900228434665690e-01 8.9912239722825753e-05 0.0000000000000000e+00  2.0253729114296967e-01 -2.2546885194377705e-06 0.0000000000000000e+00  1.3669573925223610e-01 6.1674698150653384e-05 0.0000000000000000e+00  1.1125025309218449e-01 7.3497600483091844e-05 0.0000000000000000e+00  1.9561913591508298e-01 3.6972655917015690e-06 0.0000000000000000e+00  1.0823137561747938e-01 -1.1985683198537241e-03 0.0000000000000000e+00  2.9369148323534217e-01 -2.5743802405760016e-02 0.0000000000000000e+00  2.3114690045226280e-01 -2.7171757285810276e-02 0.0000000000000000e+00  4.1839626742804770e-01 -9.5309154293690510e-02 0.0000000000000000e+00  1.2952541632009490e-01 1.8473405009469847e-05 0.0000000000000000e+00  2.9207780560684604e-01 -9.5506792088496495e-02 0.0000000000000000e+00  1.8380996061293975e-01 -2.1865121815903152e-02 0.0000000000000000e+00  1.9629222101884425e-01 5.9656011256191513e-06 0.0000000000000000e+00  2.0110062576628746e-01 -2.2422588500979079e-03 0.0000000000000000e+00  1.1073011776395394e-01 9.3756239349202643e-06 0.0000000000000000e+00  1.1551234719213307e-01 1.6369313226883789e-03 0.0000000000000000e+00  2.0396869681855323e-01 