<?xml version="1.0"?>
<VTKFile type="UnstructuredGrid"  version="0.1"  >
<UnstructuredGrid>
<Piece  NumberOfPoints="1404" NumberOfCells="2604">
<Points>
<DataArray  type="Float64"  NumberOfComponents="3"  format="ascii">0 0.41 0  0 0 0  2.2 0 0  2.2 0.41 0  0.2353553390593274 0.2353553390593274 0  0.25 0.2 0  0.2353553390593274 0.1646446609406726 0  0.2 0.15 0  0.1646446609406726 0.1646446609406726 0  0.15 0.2 0  0.1646446609406726 0.2353553390593274 0  0.2 0.25 0  0.6923879532511287 0.188268343236509 0  0.7 0.15 0  0.6923879532511287 0.1117316567634909 0  0.6707106781186547 0.07928932188134523 0  0.6382683432365089 0.05761204674887133 0  0.6 0.04999999999999999 0  0.5617316567634909 0.05761204674887134 0  0.5292893218813453 0.07928932188134524 0  0.5076120467488713 0.111731656763491 0  0.5 0.15 0  0.5076120467488713 0.188268343236509 0  0.5292893218813453 0.2207106781186547 0  0.561731656763491 0.2423879532511287 0  0.6 0.25 0  0.6382683432365089 0.2423879532511287 0  0.6707106781186547 0.2207106781186547 0  1.1 0 0  0 0.205 0  1.1 0.41 0  0.55 0 0  0.55 0.41 0  0.275 0 0  0.8250000000000001 0 0  0.275 0.41 0  0.8250000000000001 0.41 0  0.6875 0 0  0.61875 0 0  1.65 0.41 0  1.65 0 0  1.375 0 0  1.375 0.41 0  1.925 0 0  1.925 0.41 0  1.5125 0.205 0  1.7875 0.205 0  0.9625000000000001 0.205 0  1.2375 0.205 0  2.2 0.205 0  1.99375 0.2152743902439024 0  0.4125 0.41 0  2.0625 0 0  2.0625 0.41 0  2.2 0.3075 0  1.7875 0.41 0  1.375 0.1486128048780488 0  1.5125 0 0  1.7875 0 0  1.5125 0.41 0  0.9625000000000001 0.41 0  0.4125 0 0  0.1375 0 0  0.1375 0.41 0  0.6875 0.41 0  0.9625000000000001 0 0  1.2375 0 0  1.1 0.1486128048780488 0  1.2375 0.41 0  1.65 0.1486128048780487 0  0.823495464168302 0.2603780552348366 0  0.3738707794507017 0.2720196349488618 0  0.3662291281331582 0.1311456406657909 0  1.676715909090909 0.2793064024390244 0  1.126715909090909 0.2793064024390244 0  1.348284090909091 0.2793064024390244 0  0.8287581077665108 0.1302150898054257 0  1.894702181800738 0.1282910975492754 0  2.092797818199262 0.1282910975492754 0  1.85625 0.3075 0  0 0.3075 0  0 0.1025 0  2.099172119769978 0.25625 0  0.4752414543992246 0.3180372603390748 0  1.99375 0.08395950269330846 0  1.459960956013612 0.3075 0  1.569025960719943 0.2986889805672169 0  1.03125 0.3278689922742084 0  1.959375 0.3126371951219512 0  1.749222215368287 0.1025 0  1.275777784631713 0.1025 0  0.9228016959331474 0.3075 0  1.000777784631713 0.1025 0  2.2 0.1025 0  1.225938124459196 0.3075 0  1.550777784631713 0.1025 0  1.44375 0.07430640243902442 0  1.16875 0.07430640243902439 0  0.7562500000000001 0.3358727844323386 0  0.89375 0 0  1.899250267340833 0.2229966846119207 0  0.61875 0.41 0  1.766482954545455 0.2934032012195123 0  1.046078563095834 0.2389031808701145 0  1.421109702350723 0.2261157654379721 0  0.07567171807980319 0.25625 0  0.2511897295290552 0.3235829392832554 0  0.07655002503762308 0.1488653460959645 0  0.1377245246847496 0.3206030474919778 0  0.6694099692696568 0.3242771941727899 0  0.9168971191497528 0.1295727156104653 0  0.7562500000000001 0 0  2.118919042110979 0.3422084711244843 0  2.13125 0 0  0.06875000000000001 0 0  1.30625 0.41 0  1.597888256393107 0.2173787389261347 0  0.34375 0.41 0  0.2493272016354703 0.08091360081773515 0  0.5588896233436766 0.3264056208677571 0  1.829299675393195 0.07400700849299596 0  0.1334079128307869 0.08523463035786674 0  1.71875 0.41 0  0.06875000000000001 0.41 0  1.16875 0.41 0  2.038220665644273 0.332420740103091 0  0.8810647413215221 0.2027360103977071 0  0.34375 0 0  0.7453891198966415 0.2471459041008237 0  0.42112093004955 0.1988123139090554 0  0.8314023090855964 0.3351170841770613 0  0.89375 0.41 0  0.7906250000000001 0.06615386481594063 0  1.452769549894695 0.1548122580621249 0  1.369219062229598 0.07430640243902442 0  1.30625 0 0  1.07420695807087 0.07430640243902439 0  1.720943423819132 0.1714577452753128 0  1.157188124459196 0.205 0  1.304056576180868 0.1714577452753128 0  1.67579304192913 0.07430640243902437 0  1.209670467133757 0.136210026696477 0  0.4312800784902823 0.08036147352247747 0  0.8723959680194693 0.07066860609690805 0  1.025335513626278 0.1700681449722324 0  0.7945632284247136 0.1940204203251442 0  0.378125 0.3452261501101892 0  0.3307109909790086 0.2037165635083759 0  0.3009701032039409 0.2702970083403109 0  0.20625 0.41 0  1.58125 0 0  0.4812500000000001 0 0  0.9838963872396855 0.2722244191167347 0  0.06772484939107212 0.3260067317374387 0  0.20625 0 0  1.58125 0.41 0  1.631724228912893 0.3381867502687533 0  1.825608881788174 0.14499488549201 0  1.85625 0 0  1.44375 0 0  1.44375 0.41 0  1.85625 0.41 0  2.13125 0.41 0  0.7562500000000001 0.41 0  0.4812500000000001 0.41 0  1.16875 0 0  1.03125 0.41 0  1.03125 0 0  1.71875 0 0  1.99375 0 0  1.99375 0.41 0  0.9408708167433545 0.0651989315768642 0  1.340625 0.3489494290853124 0  1.134375 0.3489494290853123 0  1.700180620188976 0.3438659752031281 0  0.29668452290037 0.1318471691375986 0  0.3175441051360096 0.06496934809856265 0  0.06509151636162461 0.08140814015999148 0  2.135782184673599 0.07126652247502523 0  1.668441847249787 0.2129203728327609 0  1.295782514339747 0.2378437748815763 0  1.409375 0.3520314716057996 0  2.129248544730567 0.1906135162504124 0  2.060771381434487 0.1989445750470348 0  2.013252586573865 0.1496169464686054 0  1.942766402200229 0.1734448904596831 0  1.895522487186454 0.06076163953489683 0  2.069553871656643 0.06605731020975725 0  0.4670911801404742 0.2498408582391372 0  0.7622743084658112 0.1264100838268133 0  1.274680914880868 0.3520219391081363 0  0.3148669572599245 0.3331753056385887 0  1.614713220494657 0.09473434380863296 0  1.72990325744076 0.2380068107952482 0  1.356580098625191 0.2120393231351682 0  2.034370752044885 0.2668681600792073 0  1.51768709249349 0.3426260931494756 0  1.561883724969884 0.1650446847858835 0  1.197344062229598 0.2523725417393646 0  1.804085235518364 0.3468178408964637 0  1.817887819205233 0.2589243285818559 0  1.905897727272727 0.3485060975609756 0  0.7296439733931823 0.06337466644369745 0  0.4250935971865949 0.1394919578475796 0  0.3773030136511669 0.05130372097998036 0  1.192836486056382 0.3562350748565544 0  1.1029124365364 0.226143510831178 0  1.28257088594801 0.2944411014911587 0  0.1905185804731426 0.06029880676029167 0  1.474860187679412 0.2504218616229368 0  1.406767003493824 0.2829282258560709 0  0.5209826960981064 0.2830664557824064 0  0.5131119502780163 0.3617405848213254 0  0.1948220106098172 0.3081993407644811 0  1.845656689180403 0.1998310418452388 0  2.144958525570388 0.2909790873294231 0  2.2 0.15375 0  0.8833025251326762 0.2625402923007629 0  0.171875 0.3653875762360952 0  1.57794966442982 0.3540357145964566 0  0.446875 0.366068291212731 0  0.4272051715206439 0.2891929346190664 0  1.508991196088596 0.1421783375065625 0  1.50436820029908 0.06143401634903343 0  1.223857000523521 0.08235548624535324 0  0.6137904613287555 0.3066826366281556 0  1.153316824384777 0.1289850171317838 0  0.9751573703656133 0.327632618473408 0  2.148922302309752 0.1258841779285271 0  0.9281250000000001 0.3643758685795699 0  1.621993280276081 0.2841214267927899 0  1.550118654119087 0.2461998729100966 0  1.327182649291491 0.1216967252533594 0  0.9939955742738924 0.04663549843168518 0  1.753125 0.04556020050186112 0  1.271875 0.04556020050186116 0  0.9734326767716519 0.1506854560854393 0  0.103125 0.3675775577080512 0  1.94956388244759 0.1180512551534177 0  1.949997712993411 0.04965831614304109 0  0.717433898748555 0.295596016333797 0  1.771961817615021 0.1530278789497521 0  1.909246823951428 0.2812757146784527 0  0 0.35875 0  1.050632804931928 0.1226269704412814 0  0.05695108326502596 0.2024009637347154 0  1.948575539857022 0.2445328248721197 0  1.697271520964565 0.1233917627620729 0  1.065625 0.3689344961371042 0  1.085849084308977 0.3170853572226867 0  0.1015495998772944 0.04226029099983852 0  1.577403511714593 0.05463601888079143 0  1.751571320346033 0.3651102912045228 0  2.2 0.35875 0  0.7441773632462837 0.1786786606458751 0  0 0.05125 0  1.466879772203159 0.3611261772912453 0  0.6282230348858767 0.3577675483994025 0  1.990280163552011 0.3564754268533217 0  1.17471064520912 0.2990917256188288 0  0 0.25625 0  2.2 0.25625 0  2.2 0.05125 0  0 0.15375 0  1.853978576207987 0.35875 0  1.515638456102889 0.2882700110184686 0  2.150453692751374 0.2387066338105111 0  1.323782677156475 0.04897634338873398 0  1.409375 0.03715320121951221 0  1.406484531114799 0.1087852750766809 0  1.134375 0.03715320121951219 0  0.721875 0.3729363922161693 0  0.7941695928236929 0.3696489254637395 0  0.7934827162619036 0.3013409431456604 0  1.627401732573545 0.04552157221025036 0  0.9352049974617431 0.2507047965699472 0  0.8763260682738339 0.3611103317460093 0  2.045405893604797 0.1105340662939892 0  1.255408269734577 0.1577307500159216 0  2.028125 0.03707597992059326 0  1.003030137506755 0.3689344961371042 0  1.248258025468107 0.2565907092181813 0  1.203125 0.03661323374043041 0  0.4800125512335631 0.0549472816999725 0  2.072662025974815 0.2975086504196739 0  0.240625 0.3729825336867542 0  1.113252391110535 0.10238286244357 0  1.071052763974265 0.1885202618768825 0  0.8738809401657862 0.3106483608284829 0  0.6786819423003397 0.2677558482644021 0  1.887722846421017 0.1760882698830035 0  1.472640588990488 0.1118278026240017 0  0.5843750000000001 0.41 0  1.865937103925594 0.2604137786483804 0  1.463913572748262 0.2030442564990043 0  1.376426316059077 0.3186741374914345 0  0.1038643885363755 0.2162701735320032 0  0.1769473813227781 0.1070849728467114 0  0.458787839809176 0.171541653775316 0  0.240625 0 0  0.04179569703428024 0.2877217852556549 0  0.1258346557601885 0.2699740073054968 0  1.722140693354707 0.282908100935778 0  0.41206179117512 0.2448172567039922 0  0.3702471778075604 0.2265217604228704 0  0.3714881805374215 0.1786967818665642 0  1.77397096061971 0.2481483237422926 0  2.105123889160691 0.03743885948498647 0  1.001138337938679 0.229719337663998 0  1.051242910646791 0.2854826559431138 0  1.395420985247586 0.18
[...]
<PointData  Vectors="f_37"> 
<DataArray  type="Float64"  Name="f_37"  NumberOfComponents="3" format="ascii">2.2683868320186563e-07 1.6295643850686781e-08 0.0000000000000000e+00  -4.4813252505254498e-06 -3.2385347592604067e-07 0.0000000000000000e+00  -7.6529776950869354e-07 9.4583696585975678e-10 0.0000000000000000e+00  -9.9168523563932467e-07 -3.7015668205760938e-10 0.0000000000000000e+00  -5.7631589254529053e-07 1.0114823245396542e-06 0.0000000000000000e+00  -2.0271572102185638e-07 9.3811475517153901e-07 0.0000000000000000e+00  2.7158964872070127e-07 4.1366190769431004e-07 0.0000000000000000e+00  -1.3019159911387331e-06 -5.2375485148651358e-07 0.0000000000000000e+00  -1.5619929440262007e-06 2.1075598208530005e-07 0.0000000000000000e+00  2.1912941742963651e-07 8.1347396550986952e-08 0.0000000000000000e+00  -6.9299820373292789e-07 -4.5544717149263831e-07 0.0000000000000000e+00  -1.0307079349192028e-06 -3.2352684453304749e-07 0.0000000000000000e+00  1.0769035216046716e-06 -8.6458304374361145e-07 0.0000000000000000e+00  -6.6198762920090392e-07 -2.5516959844486207e-06 0.0000000000000000e+00  -8.6802315495863760e-07 -1.3865194419556968e-06 0.0000000000000000e+00  -2.3580609914765661e-06 1.0190334417214982e-07 0.0000000000000000e+00  1.6273109484232816e-06 1.4076104772165667e-06 0.0000000000000000e+00  3.2141517673523462e-01 9.0038131699218829e-02 0.0000000000000000e+00  5.9960106461597467e-06 3.8259837434318584e-06 0.0000000000000000e+00  6.5029886966871334e-06 -2.3441493282744488e-08 0.0000000000000000e+00  -2.3582889482928126e-06 -1.8883504949206918e-06 0.0000000000000000e+00  -1.0944986159359460e-07 2.5327811089703239e-06 0.0000000000000000e+00  3.3842282697889723e-06 2.4150155338526184e-06 0.0000000000000000e+00  2.7443531321342850e-06 -3.8811408573920486e-06 0.0000000000000000e+00  -3.3135618516444101e-06 -4.4820952654922861e-06 0.0000000000000000e+00  -6.1981735363276873e-06 -1.5047751909656328e-06 0.0000000000000000e+00  -4.9571801198949997e-06 -1.0374499464471647e-07 0.0000000000000000e+00  7.8387671070924221e-07 -1.3048392742514663e-07 0.0000000000000000e+00  -2.8978868411216668e-06 4.1678994876152623e-07 0.0000000000000000e+00  1.6583339620418039e-01 -2.8137058340704643e-07 0.0000000000000000e+00  -1.5545286930436827e-06 -2.2678853188669002e-07 0.0000000000000000e+00  5.6257953705570710e-06 3.6195996194794330e-06 0.0000000000000000e+00  -1.4794275885618371e-06 4.3747068113079828e-08 0.0000000000000000e+00  3.8848457848168157e-07 1.1787347365110572e-07 0.0000000000000000e+00  1.9333679539925753e-06 -4.2744838568360598e-07 0.0000000000000000e+00  -9.2871970378296009e-07 2.0170117667051625e-07 0.0000000000000000e+00  -9.0507701317937751e-07 2.4545045152563062e-08 0.0000000000000000e+00  -2.3921738178458788e-06 -5.1047334614588724e-07 0.0000000000000000e+00  -8.6463137693599644e-06 -1.4716640865548953e-07 0.0000000000000000e+00  -1.1242278096183270e-06 -1.4210193569634075e-09 0.0000000000000000e+00  -1.4552104991870517e-06 -2.4485851486489674e-09 0.0000000000000000e+00  -7.0069832255703541e-07 -1.1283243860445574e-08 0.0000000000000000e+00  -5.2861526023441043e-07 -1.2452900121061053e-08 0.0000000000000000e+00  -6.0672483165907721e-07 -1.7685611678693846e-10 0.0000000000000000e+00  -1.1706092126801378e-07 -6.3810600997836415e-10 0.0000000000000000e+00  2.0921306976285689e-01 4.1840300649207177e-04 0.0000000000000000e+00  2.0920924397958571e-01 6.6752457857701731e-05 0.0000000000000000e+00  2.5072995422116146e-01 -1.1652670331897874e-01 0.0000000000000000e+00  2.1210768626778351e-01 -4.6644902382307913e-03 0.0000000000000000e+00  2.0922852735471331e-01 -6.8940481794064097e-06 0.0000000000000000e+00  2.0916402562038885e-01 1.1134411197494703e-05 0.0000000000000000e+00  5.4974311616681501e-07 6.3086919021565219e-08 0.0000000000000000e+00  9.5764020912329224e-08 9.1433811853688466e-10 0.0000000000000000e+00  -6.7911349912727140e-07 1.4575318900485652e-09 0.0000000000000000e+00  1.9233405665914788e-01 -1.8415486833541150e-06 0.0000000000000000e+00  -9.7464574848934437e-07 -8.1466083915229453e-10 0.0000000000000000e+00  2.0680082533691999e-01 3.0155947089077631e-04 0.0000000000000000e+00  -1.4346442259885518e-06 -5.3110670805711539e-09 0.0000000000000000e+00  -1.1796107450917661e-06 -1.0868540025828972e-09 0.0000000000000000e+00  -7.5513183763651154e-07 -5.3596359316148714e-09 0.0000000000000000e+00  1.9168087440749683e-06 4.8156326005811059e-07 0.0000000000000000e+00  -3.0649494028521549e-07 -2.6253014276841849e-07 0.0000000000000000e+00  -9.6704513478240714e-07 -8.0761271566604209e-08 0.0000000000000000e+00  -9.9218829265838390e-08 -7.8667976175312876e-08 0.0000000000000000e+00  -1.8543641069184785e-06 -2.1683203920508005e-07 0.0000000000000000e+00  -1.3258063393901776e-06 3.4254577958476682e-07 0.0000000000000000e+00  7.0739294461429966e-07 4.0447460948887044e-08 0.0000000000000000e+00  1.9219177713268371e-01 -4.7628502160408162e-02 0.0000000000000000e+00  -1.0314979644150642e-06 -5.3796244158181337e-08 0.0000000000000000e+00  2.0691523130443631e-01 1.7141396594591736e-04 0.0000000000000000e+00  3.2818482365645663e-01 -6.8391968813341614e-02 0.0000000000000000e+00  9.2508051782880157e-02 2.7669533459189085e-03 0.0000000000000000e+00  3.1326882863635586e-01 1.1952935904523902e-01 0.0000000000000000e+00  2.0357458377818979e-01 1.3461998938917835e-04 0.0000000000000000e+00  2.2542872299611078e-01 -3.7830515841533489e-03 0.0000000000000000e+00  2.0376326332004605e-01 8.1269191489194838e-04 0.0000000000000000e+00  3.5935011818323807e-02 5.2155373898383088e-02 0.0000000000000000e+00  2.0305560267114919e-01 2.9646701239902500e-05 0.0000000000000000e+00  2.0301018522527003e-01 9.2943378646475645e-06 0.0000000000000000e+00  1.9231274070402912e-01 2.2303176140383135e-05 0.0000000000000000e+00  7.5234887607102605e-02 -9.5142612104209427e-09 0.0000000000000000e+00  2.7319257119833018e-01 1.4511244794420760e-07 0.0000000000000000e+00  2.0740083378809038e-01 2.5294234284730198e-06 0.0000000000000000e+00  2.4175659985627904e-01 8.0513951729408492e-02 0.0000000000000000e+00  1.7784408035881208e-01 5.6610348828515373e-06 0.0000000000000000e+00  1.9180393459211925e-01 5.2281744162638235e-04 0.0000000000000000e+00  1.9674601222264088e-01 2.7401471087859698e-04 0.0000000000000000e+00  1.9570227901201312e-01 -1.3609942573699489e-02 0.0000000000000000e+00  1.8901975435498156e-01 1.6878458079366200e-06 0.0000000000000000e+00  1.9240839087827813e-01 5.2241538415376922e-05 0.0000000000000000e+00  1.9155320510462953e-01 -1.0937380825385219e-03 0.0000000000000000e+00  3.4843310196785232e-01 -8.2100638168566289e-02 0.0000000000000000e+00  9.8940156136505239e-02 -5.3331618647285688e-02 0.0000000000000000e+00  1.9231901179978472e-01 -3.7273408772384133e-06 0.0000000000000000e+00  1.9316972278348993e-01 2.3790777465810473e-03 0.0000000000000000e+00  1.9258514093001800e-01 2.8394164562566839e-04 0.0000000000000000e+00  1.6805539025734875e-01 4.2360577219865866e-04 0.0000000000000000e+00  1.5974748002343056e-01 -7.2983590462136309e-03 0.0000000000000000e+00  4.3078927023857766e-01 -5.4154848037658868e-02 0.0000000000000000e+00  1.4760948723294439e-06 -2.8930201978520975e-07 0.0000000000000000e+00  2.0906477737763746e-01 2.6949232266231112e-05 0.0000000000000000e+00  -1.1040845028201355e-06 -8.0314358599636079e-08 0.0000000000000000e+00  1.9915732098746294e-01 6.9691404804003259e-05 0.0000000000000000e+00  2.8211377992948655e-01 -6.8990258764130591e-02 0.0000000000000000e+00  2.0904014272340790e-01 5.1969478346278793e-04 0.0000000000000000e+00  1.2547880199382588e-01 7.0321545222938625e-02 0.0000000000000000e+00  2.3076047197798272e-01 1.7993211082599454e-02 0.0000000000000000e+00  2.0899571112303422e-01 2.3786224638245562e-02 0.0000000000000000e+00  1.4763205911413152e-01 7.2016201736846377e-02 0.0000000000000000e+00  4.6705773319923849e-01 -2.1443425080551796e-02 0.0000000000000000e+00  5.8370669595103092e-02 -2.9953721246649499e-02 0.0000000000000000e+00  5.4055093511346118e-07 -3.4398179819840968e-07 0.0000000000000000e+00  1.5870146918512468e-01 3.6816532317823227e-06 0.0000000000000000e+00  -1.8617858648772458e-06 -3.8873475308180417e-09 0.0000000000000000e+00  -1.3864343324376295e-06 1.5220989716244083e-08 0.0000000000000000e+00  -5.3903753178694796e-07 -7.2666708197673882e-09 0.0000000000000000e+00  2.0910975374919108e-01 2.7525424970978210e-04 0.0000000000000000e+00  -2.0967169802620681e-06 -1.6578096788542811e-07 0.0000000000000000e+00  4.0455010877972625e-01 4.5694054522357926e-02 0.0000000000000000e+00  3.8806378136392072e-01 8.4382034927794627e-02 0.0000000000000000e+00  1.6693467285264774e-01 2.7370296650281458e-06 0.0000000000000000e+00  3.4414637261309083e-01 1.3034085911061827e-02 0.0000000000000000e+00  -1.1834692821568457e-06 -1.3363218508916167e-09 0.0000000000000000e+00  -1.5763364981148760e-07 -1.1792159712796791e-07 0.0000000000000000e+00  -1.9901982937152050e-06 -1.5270870204470150e-07 0.0000000000000000e+00  1.7109388238370118e-01 -3.8983405497007479e-06 0.0000000000000000e+00  1.8024858149605816e-01 -5.2760104226924488e-02 0.0000000000000000e+00  -4.3621202171526219e-07 -7.6789889808728009e-08 0.0000000000000000e+00  1.6836384740028237e-01 -2.4509755837301434e-02 0.0000000000000000e+00  1.7680732778214256e-01 1.7121571196968086e-01 0.0000000000000000e+00  3.7471230956245100e-01 -6.1256561677537985e-02 0.0000000000000000e+00  2.0716029343655981e-06 -1.9075468641251509e-11 0.0000000000000000e+00  8.4826443553995448e-02 4.8610583417025024e-02 0.0000000000000000e+00  2.0763015965130421e-01 5.0903091785348218e-04 0.0000000000000000e+00  1.6840450178220409e-01 4.9244795062692800e-04 0.0000000000000000e+00  2.5758104953680247e-07 -2.3408999835006846e-09 0.0000000000000000e+00  1.2903838245857605e-01 -2.4645535867398646e-02 0.0000000000000000e+00  2.0860027234729731e-01 1.0544144091505472e-04 0.0000000000000000e+00  2.2093265437202228e-01 -1.9393328694515464e-02 0.0000000000000000e+00  2.0847280289155912e-01 -1.2188274514852151e-03 0.0000000000000000e+00  1.6735337414972987e-01 7.9568377471876924e-05 0.0000000000000000e+00  2.0098513839236978e-01 -8.6265158236387505e-03 0.0000000000000000e+00  2.2060080405998431e-01 2.6589743580254514e-02 0.0000000000000000e+00  3.8084919029956858e-02 1.0448039016168547e-02 0.0000000000000000e+00  1.9540534502563478e-01 -9.5393091026376386e-02 0.0000000000000000e+00  5.2573020177603479e-02 3.4437614664910125e-02 0.0000000000000000e+00  2.1218341179717939e-01 5.9784637669052162e-03 0.0000000000000000e+00  4.5747121744802846e-02 1.3739525871875262e-02 0.0000000000000000e+00  9.3146440715570433e-02 -2.3687734834743537e-02 0.0000000000000000e+00  -3.6312906510042597e-07 1.7562284148083391e-07 0.0000000000000000e+00  -6.3637262975049637e-07 -4.2138326202049743e-09 0.0000000000000000e+00  2.3749794965055587e-07 1.5941465447762601e-07 0.0000000000000000e+00  3.3066458378708308e-01 -9.0193030624846668e-02 0.0000000000000000e+00  7.8025727272308484e-02 3.0606166956166768e-02 0.0000000000000000e+00  -2.2847967673031619e-06 -9.7461992248795375e-08 0.0000000000000000e+00  -8.2826107525050874e-07 -2.1901738627104309e-09 0.0000000000000000e+00  1.6391006579065837e-01 1.1345956966652614e-04 0.0000000000000000e+00  2.0632758643095614e-01 3.7584971777010361e-05 0.0000000000000000e+00  -8.3784844268157122e-07 1.9276753739559338e-10 0.0000000000000000e+00  -9.8847003003997176e-07 -9.1319993428900841e-09 0.0000000000000000e+00  -1.0280521879062093e-06 -1.0284002027422508e-08 0.0000000000000000e+00  -2.1216990243769513e-07 2.0365694068275347e-10 0.0000000000000000e+00  -1.7225723477086240e-07 -4.5586897117252858e-10 0.0000000000000000e+00  1.1523806547825101e-06 -2.0429438923466547e-07 0.0000000000000000e+00  -2.5346483081924363e-06 -4.1343252930825113e-09 0.0000000000000000e+00  -1.1349347802759187e-06 2.4103412833464220e-07 0.0000000000000000e+00  1.5247366120497751e-06 3.8631141968012895e-07 0.0000000000000000e+00  -2.9115352698369993e-06 3.1719235345960125e-07 0.0000000000000000e+00  1.0390457402785413e-07 -1.5213680632185053e-09 0.0000000000000000e+00  -1.0895384051209957e-06 1.2414952019709928e-09 0.0000000000000000e+00  -3.9938892947510598e-07 -3.9507719749386027e-10 0.0000000000000000e+00  4.3502315032062706e-02 -1.6152949950189063e-02 0.0000000000000000e+00  1.4668994048994510e-01 7.9322912481776843e-04 0.0000000000000000e+00  1.3980625661874888e-01 4.9846380972419701e-03 0.0000000000000000e+00  1.5624626393785487e-01 5.0159452686697364e-05 0.0000000000000000e+00  2.9963086825045271e-01 8.1595307234428552e-02 0.0000000000000000e+00  3.3127453555852399e-01 5.7984235999042857e-02 0.0000000000000000e+00  3.1549390122540499e-01 2.6143833027157358e-02 0.0000000000000000e+00  1.6339487633850683e-01 9.6254037931862878e-06 0.0000000000000000e+00  2.0916733983204550e-01 1.7350240333430169e-04 0.0000000000000000e+00  2.1018784212532116e-01 -3.6752026251079200e-04 0.0000000000000000e+00  1.4235637093763143e-01 4.4394519186294307e-04 0.0000000000000000e+00  2.0913208380172951e-01 -3.7105306684784149e-08 0.0000000000000000e+00  2.0919938258613516e-01 2.0189672172490947e-06 0.0000000000000000e+00  2.0691831829493429e-01 5.6707635606128147e-06 0.0000000000000000e+00  2.0867433730383508e-01 1.5207816090263498e-05 0.0000000000000000e+00  1.4823066871717233e-01 4.9696122497096913e-06 0.0000000000000000e+00  1.5622162377810209e-01 1.1319200488092463e-05 0.0000000000000000e+00  2.1425096637231866e-01 2.1040347774854715e-01 0.0000000000000000e+00  3.0831110660443972e-02 7.3159074057981013e-02 0.0000000000000000e+00  1.4046657397700676e-01 1.3255730835104054e-03 0.0000000000000000e+00  2.1847276521495382e-01 -2.3912861591912690e-03 0.0000000000000000e+00  1.8734622809187859e-01 1.6138219884951846e-04 0.0000000000000000e+00  2.0858933217952710e-01 1.0086683682961032e-04 0.0000000000000000e+00  2.0950741185863478e-01 1.4659027393519947e-04 0.0000000000000000e+00  2.0611544809257143e-01 6.9858596323731210e-06 0.0000000000000000e+00  1.5756605088095868e-01 2.4735999693412656e-04 0.0000000000000000e+00  2.0835575718316990e-01 3.2309817483237922e-04 0.0000000000000000e+00  2.1695639183321275e-01 -3.0913411328223990e-03 0.0000000000000000e+00  1.5192147837994907e-01 1.4428626460923333e-05 0.0000000000000000e+00  2.0708878282648704e-01 4.7838562900406352e-05 0.0000000000000000e+00  1.4934075062887209e-01 6.0673049771398588e-06 0.0000000000000000e+00  1.4430286576615081e-01 8.1086316129852079e-02 0.0000000000000000e+00  2.4941066768437259e-01 1.3986920007799838e-01 0.0000000000000000e+00  2.0524418377438930e-01 3.2882883275180380e-02 0.0000000000000000e+00  1.2992227576229545e-01 2.8501989125122849e-03 0.0000000000000000e+00  2.4482758209094210e-01 -3.6269190342680759e-02 0.0000000000000000e+00  1.9934457361448440e-01 1.2553653596930410e-03 0.0000000000000000e+00  3.9284575901532859e-01 1.8943892729945202e-02 0.0000000000000000e+00  2.0777128945347445e-01 5.1339677531441570e-04 0.0000000000000000e+00  2.0243344297697188e-01 7.0239976969353290e-04 0.0000000000000000e+00  3.5146648176167022e-01 1.9500264437171985e-01 0.0000000000000000e+00  2.8474293281768981e-01 4.0167002609690867e-02 0.0000000000000000e+00  2.3198011546748187e-01 7.2607932223656343e-02 0.0000000000000000e+00  2.0919571787933058e-01 4.4936717941050026e-05 0.0000000000000000e+00  2.0019275858728439e-01 -1.1660663616155846e-05 0.0000000000000000e+00  2.0740072407567714e-01 -3.3829123579395062e-06 0.0000000000000000e+00  3.6972041987009086e-01 -1.0317188652420679e-01 0.0000000000000000e+00  1.2279190260973825e-01 2.4760966561838613e-02 0.0000000000000000e+00  1.3985247420814290e-01 1.3051618105814762e-04 0.0000000000000000e+00  2.1242798622392406e-01 2.1923405021182136e-02 0.0000000000000000e+00  1.5161565414031627e-01 5.5580918462496576e-02 0.0000000000000000e+00  2.0611072352174672e-01 4.2642591911487663e-04 0.0000000000000000e+00  1.4987795201896903e-01 2.3775268290938349e-04 0.0000000000000000e+00  1.7409800734459122e-01 -2.8865324716214314e-03 0.0000000000000000e+00  4.6906901469871992e-01 4.1470528492393494e-02 0.0000000000000000e+00  1.9243186455294622e-01 -2.0794552619648746e-02 0.0000000000000000e+00  2.3788336914375918e-01 -3.9194567266443256e-02 0.0000000000000000e+00  2.0237848756067181e-01 1.0043898079504349e-05 0.0000000000000000e+00  1.5494546078663315e-01 -1.8886107186840893e-02 0.0000000000000000e+00  2.0219283718887857e-01 1.9689310909260058e-04 0.0000000000000000e+00  2.0807844332234363e-01 3.4993950827564977e-04 0.0000000000000000e+00  2.0087228870139789e-01 -9.2274954788608735e-05 0.0000000000000000e+00  5.4557205947929253e-02 -1.5437564387321365e-02 0.0000000000000000e+00  1.2057513334019028e-01 1.9544774623195301e-05 0.0000000000000000e+00  1.2248397964858561e-01 5.3342657331253406e-06 0.0000000000000000e+00  1.2899834803501589e-01 -8.6097159943988408e-02 0.0000000000000000e+00  6.1913439983522445e-02 1.6516719558324795e-02 0.0000000000000000e+00  1.9974716115392149e-01 1.2083689087917599e-05 0.0000000000000000e+00  1.2867975361446068e-01 5.0609831237000221e-06 0.0000000000000000e+00  4.1374324835215592e-01 -5.2589441285883338e-02 0.0000000000000000e+00  2.0732794844828661e-01 6.3921438800234050e-05 0.0000000000000000e+00  2.0312519932330134e-01 1.0026380364838146e-05 0.0000000000000000e+00  3.5785379830424201e-02 -1.5365146476058032e-08 0.0000000000000000e+00  1.5006338227179597e-01 -6.0215133807384975e-02 0.0000000000000000e+00  1.5900753773310625e-01 4.1501152778091403e-02 0.0000000000000000e+00  2.0828859829846771e-01 2.1222273767867118e-05 0.0000000000000000e+00  2.0172823764617329e-01 1.0987961925623743e-04 0.0000000000000000e+00  9.2673255571427998e-02 1.8529949716596292e-03 0.0000000000000000e+00  1.9634292637611597e-01 -3.2142411274316983e-05 0.0000000000000000e+00  3.8108162510190857e-01 3.5603052602679174e-02 0.0000000000000000e+00  1.3821602294490454e-01 1.2227239946679556e-04 0.0000000000000000e+00  1.1906116222571134e-01 2.1397859724314074e-05 0.0000000000000000e+00  1.3160722686601328e-01 -1.3401669116287054e-06 0.0000000000000000e+00  -2.8612744078857864e-03 4.6801609327370888e-02 0.0000000000000000e+00  3.3356381657021567e-01 1.0469341144862030e-07 0.0000000000000000e+00  1.2627725816778315e-01 2.4289326185883113e-04 0.0000000000000000e+00  4.0871316252921625e-01 1.6710851381143237e-03 0.0000000000000000e+00  1.3585535739346546e-01 1.3658665991427108e-06 0.0000000000000000e+00  2.0232069707082731e-01 2.9757834075495419e-03 0.0000000000000000e+00  1.1852652660577935e-01 4.8168504194974458e-08 0.0000000000000000e+00  2.0740542886428609e-01 5.8809468975783296e-06 0.0000000000000000e+00  1.3163462798596437e-01 1.1492373988756787e-05 0.0000000000000000e+00  2.1733313495796774e-01 1.2852958022380007e-07 0.0000000000000000e+00  1.3164227069211282e-01 3.8572047855792248e-06 0.0000000000000000e+00  2.0082219443140040e-01 4.1048071011609848e-04 0.0000000000000000e+00  2.0859275938829050e-01 3.2685098863312168e-06 0.0000000000000000e+00  1.2920965146841284e-01 3.1435845873523246e-04 0.0000000000000000e+00  1.0348547199665656e-01 2.2592465968519857e-04 0.0000000000000000e+00  1.9625749098466569e-01 5.3409466504974253e-04 0.0000000000000000e+00  9.5354815554566597e-02 -3.9097974758485156e-03 0.0000000000000000e+00  3.1337522113761235e-01 -2.2670379056673125e-02 0.0000000000000000e+00  2.6284061105968931e-01 -2.5885598863448593e-02 0.0000000000000000e+00  4.2816711250288469e-01 -7.3649486489767990e-02 0.0000000000000000e+00  1.2064091244598013e-01 5.6585922882557811e-05 0.0000000000000000e+00  3.4910794521648808e-01 -1.1839939725279330e-01 0.0000000000000000e+00  2.1840717535022455e-01 -2.8638455964112009e-02 0.0000000000000000e+00  1.9661823292883907e-01 1.3435831704398756e-05 0.0000000000000000e+00  2.0682065747928499e-01 -3.9256413627807756e-03 0.0000000000000000e+00  1.0212028173753701e-01 9.1746141578494671e-06 0.0000000000000000e+00  9.9285217005115778e-02 -5.3936072396089507e-03 0.0000000000000000e+00  2.1108933379154726e-01 -5.4336880225317212