<?xml version="1.0"?>
<VTKFile type="UnstructuredGrid"  version="0.1"  >
<UnstructuredGrid>
<Piece  NumberOfPoints="1404" NumberOfCells="2604">
<Points>
<DataArray  type="Float64"  NumberOfComponents="3"  format="ascii">0 0.41 0  0 0 0  2.2 0 0  2.2 0.41 0  0.2353553390593274 0.2353553390593274 0  0.25 0.2 0  0.2353553390593274 0.1646446609406726 0  0.2 0.15 0  0.1646446609406726 0.1646446609406726 0  0.15 0.2 0  0.1646446609406726 0.2353553390593274 0  0.2 0.25 0  0.6923879532511287 0.188268343236509 0  0.7 0.15 0  0.6923879532511287 0.1117316567634909 0  0.6707106781186547 0.07928932188134523 0  0.6382683432365089 0.05761204674887133 0  0.6 0.04999999999999999 0  0.5617316567634909 0.05761204674887134 0  0.5292893218813453 0.07928932188134524 0  0.5076120467488713 0.111731656763491 0  0.5 0.15 0  0.5076120467488713 0.188268343236509 0  0.5292893218813453 0.2207106781186547 0  0.561731656763491 0.2423879532511287 0  0.6 0.25 0  0.6382683432365089 0.2423879532511287 0  0.6707106781186547 0.2207106781186547 0  1.1 0 0  0 0.205 0  1.1 0.41 0  0.55 0 0  0.55 0.41 0  0.275 0 0  0.8250000000000001 0 0  0.275 0.41 0  0.8250000000000001 0.41 0  0.6875 0 0  0.61875 0 0  1.65 0.41 0  1.65 0 0  1.375 0 0  1.375 0.41 0  1.925 0 0  1.925 0.41 0  1.5125 0.205 0  1.7875 0.205 0  0.9625000000000001 0.205 0  1.2375 0.205 0  2.2 0.205 0  1.99375 0.2152743902439024 0  0.4125 0.41 0  2.0625 0 0  2.0625 0.41 0  2.2 0.3075 0  1.7875 0.41 0  1.375 0.1486128048780488 0  1.5125 0 0  1.7875 0 0  1.5125 0.41 0  0.9625000000000001 0.41 0  0.4125 0 0  0.1375 0 0  0.1375 0.41 0  0.6875 0.41 0  0.9625000000000001 0 0  1.2375 0 0  1.1 0.1486128048780488 0  1.2375 0.41 0  1.65 0.1486128048780487 0  0.823495464168302 0.2603780552348366 0  0.3738707794507017 0.2720196349488618 0  0.3662291281331582 0.1311456406657909 0  1.676715909090909 0.2793064024390244 0  1.126715909090909 0.2793064024390244 0  1.348284090909091 0.2793064024390244 0  0.8287581077665108 0.1302150898054257 0  1.894702181800738 0.1282910975492754 0  2.092797818199262 0.1282910975492754 0  1.85625 0.3075 0  0 0.3075 0  0 0.1025 0  2.099172119769978 0.25625 0  0.4752414543992246 0.3180372603390748 0  1.99375 0.08395950269330846 0  1.459960956013612 0.3075 0  1.569025960719943 0.2986889805672169 0  1.03125 0.3278689922742084 0  1.959375 0.3126371951219512 0  1.749222215368287 0.1025 0  1.275777784631713 0.1025 0  0.9228016959331474 0.3075 0  1.000777784631713 0.1025 0  2.2 0.1025 0  1.225938124459196 0.3075 0  1.550777784631713 0.1025 0  1.44375 0.07430640243902442 0  1.16875 0.07430640243902439 0  0.7562500000000001 0.3358727844323386 0  0.89375 0 0  1.899250267340833 0.2229966846119207 0  0.61875 0.41 0  1.766482954545455 0.2934032012195123 0  1.046078563095834 0.2389031808701145 0  1.421109702350723 0.2261157654379721 0  0.07567171807980319 0.25625 0  0.2511897295290552 0.3235829392832554 0  0.07655002503762308 0.1488653460959645 0  0.1377245246847496 0.3206030474919778 0  0.6694099692696568 0.3242771941727899 0  0.9168971191497528 0.1295727156104653 0  0.7562500000000001 0 0  2.118919042110979 0.3422084711244843 0  2.13125 0 0  0.06875000000000001 0 0  1.30625 0.41 0  1.597888256393107 0.2173787389261347 0  0.34375 0.41 0  0.2493272016354703 0.08091360081773515 0  0.5588896233436766 0.3264056208677571 0  1.829299675393195 0.07400700849299596 0  0.1334079128307869 0.08523463035786674 0  1.71875 0.41 0  0.06875000000000001 0.41 0  1.16875 0.41 0  2.038220665644273 0.332420740103091 0  0.8810647413215221 0.2027360103977071 0  0.34375 0 0  0.7453891198966415 0.2471459041008237 0  0.42112093004955 0.1988123139090554 0  0.8314023090855964 0.3351170841770613 0  0.89375 0.41 0  0.7906250000000001 0.06615386481594063 0  1.452769549894695 0.1548122580621249 0  1.369219062229598 0.07430640243902442 0  1.30625 0 0  1.07420695807087 0.07430640243902439 0  1.720943423819132 0.1714577452753128 0  1.157188124459196 0.205 0  1.304056576180868 0.1714577452753128 0  1.67579304192913 0.07430640243902437 0  1.209670467133757 0.136210026696477 0  0.4312800784902823 0.08036147352247747 0  0.8723959680194693 0.07066860609690805 0  1.025335513626278 0.1700681449722324 0  0.7945632284247136 0.1940204203251442 0  0.378125 0.3452261501101892 0  0.3307109909790086 0.2037165635083759 0  0.3009701032039409 0.2702970083403109 0  0.20625 0.41 0  1.58125 0 0  0.4812500000000001 0 0  0.9838963872396855 0.2722244191167347 0  0.06772484939107212 0.3260067317374387 0  0.20625 0 0  1.58125 0.41 0  1.631724228912893 0.3381867502687533 0  1.825608881788174 0.14499488549201 0  1.85625 0 0  1.44375 0 0  1.44375 0.41 0  1.85625 0.41 0  2.13125 0.41 0  0.7562500000000001 0.41 0  0.4812500000000001 0.41 0  1.16875 0 0  1.03125 0.41 0  1.03125 0 0  1.71875 0 0  1.99375 0 0  1.99375 0.41 0  0.9408708167433545 0.0651989315768642 0  1.340625 0.3489494290853124 0  1.134375 0.3489494290853123 0  1.700180620188976 0.3438659752031281 0  0.29668452290037 0.1318471691375986 0  0.3175441051360096 0.06496934809856265 0  0.06509151636162461 0.08140814015999148 0  2.135782184673599 0.07126652247502523 0  1.668441847249787 0.2129203728327609 0  1.295782514339747 0.2378437748815763 0  1.409375 0.3520314716057996 0  2.129248544730567 0.1906135162504124 0  2.060771381434487 0.1989445750470348 0  2.013252586573865 0.1496169464686054 0  1.942766402200229 0.1734448904596831 0  1.895522487186454 0.06076163953489683 0  2.069553871656643 0.06605731020975725 0  0.4670911801404742 0.2498408582391372 0  0.7622743084658112 0.1264100838268133 0  1.274680914880868 0.3520219391081363 0  0.3148669572599245 0.3331753056385887 0  1.614713220494657 0.09473434380863296 0  1.72990325744076 0.2380068107952482 0  1.356580098625191 0.2120393231351682 0  2.034370752044885 0.2668681600792073 0  1.51768709249349 0.3426260931494756 0  1.561883724969884 0.1650446847858835 0  1.197344062229598 0.2523725417393646 0  1.804085235518364 0.3468178408964637 0  1.817887819205233 0.2589243285818559 0  1.905897727272727 0.3485060975609756 0  0.7296439733931823 0.06337466644369745 0  0.4250935971865949 0.1394919578475796 0  0.3773030136511669 0.05130372097998036 0  1.192836486056382 0.3562350748565544 0  1.1029124365364 0.226143510831178 0  1.28257088594801 0.2944411014911587 0  0.1905185804731426 0.06029880676029167 0  1.474860187679412 0.2504218616229368 0  1.406767003493824 0.2829282258560709 0  0.5209826960981064 0.2830664557824064 0  0.5131119502780163 0.3617405848213254 0  0.1948220106098172 0.3081993407644811 0  1.845656689180403 0.1998310418452388 0  2.144958525570388 0.2909790873294231 0  2.2 0.15375 0  0.8833025251326762 0.2625402923007629 0  0.171875 0.3653875762360952 0  1.57794966442982 0.3540357145964566 0  0.446875 0.366068291212731 0  0.4272051715206439 0.2891929346190664 0  1.508991196088596 0.1421783375065625 0  1.50436820029908 0.06143401634903343 0  1.223857000523521 0.08235548624535324 0  0.6137904613287555 0.3066826366281556 0  1.153316824384777 0.1289850171317838 0  0.9751573703656133 0.327632618473408 0  2.148922302309752 0.1258841779285271 0  0.9281250000000001 0.3643758685795699 0  1.621993280276081 0.2841214267927899 0  1.550118654119087 0.2461998729100966 0  1.327182649291491 0.1216967252533594 0  0.9939955742738924 0.04663549843168518 0  1.753125 0.04556020050186112 0  1.271875 0.04556020050186116 0  0.9734326767716519 0.1506854560854393 0  0.103125 0.3675775577080512 0  1.94956388244759 0.1180512551534177 0  1.949997712993411 0.04965831614304109 0  0.717433898748555 0.295596016333797 0  1.771961817615021 0.1530278789497521 0  1.909246823951428 0.2812757146784527 0  0 0.35875 0  1.050632804931928 0.1226269704412814 0  0.05695108326502596 0.2024009637347154 0  1.948575539857022 0.2445328248721197 0  1.697271520964565 0.1233917627620729 0  1.065625 0.3689344961371042 0  1.085849084308977 0.3170853572226867 0  0.1015495998772944 0.04226029099983852 0  1.577403511714593 0.05463601888079143 0  1.751571320346033 0.3651102912045228 0  2.2 0.35875 0  0.7441773632462837 0.1786786606458751 0  0 0.05125 0  1.466879772203159 0.3611261772912453 0  0.6282230348858767 0.3577675483994025 0  1.990280163552011 0.3564754268533217 0  1.17471064520912 0.2990917256188288 0  0 0.25625 0  2.2 0.25625 0  2.2 0.05125 0  0 0.15375 0  1.853978576207987 0.35875 0  1.515638456102889 0.2882700110184686 0  2.150453692751374 0.2387066338105111 0  1.323782677156475 0.04897634338873398 0  1.409375 0.03715320121951221 0  1.406484531114799 0.1087852750766809 0  1.134375 0.03715320121951219 0  0.721875 0.3729363922161693 0  0.7941695928236929 0.3696489254637395 0  0.7934827162619036 0.3013409431456604 0  1.627401732573545 0.04552157221025036 0  0.9352049974617431 0.2507047965699472 0  0.8763260682738339 0.3611103317460093 0  2.045405893604797 0.1105340662939892 0  1.255408269734577 0.1577307500159216 0  2.028125 0.03707597992059326 0  1.003030137506755 0.3689344961371042 0  1.248258025468107 0.2565907092181813 0  1.203125 0.03661323374043041 0  0.4800125512335631 0.0549472816999725 0  2.072662025974815 0.2975086504196739 0  0.240625 0.3729825336867542 0  1.113252391110535 0.10238286244357 0  1.071052763974265 0.1885202618768825 0  0.8738809401657862 0.3106483608284829 0  0.6786819423003397 0.2677558482644021 0  1.887722846421017 0.1760882698830035 0  1.472640588990488 0.1118278026240017 0  0.5843750000000001 0.41 0  1.865937103925594 0.2604137786483804 0  1.463913572748262 0.2030442564990043 0  1.376426316059077 0.3186741374914345 0  0.1038643885363755 0.2162701735320032 0  0.1769473813227781 0.1070849728467114 0  0.458787839809176 0.171541653775316 0  0.240625 0 0  0.04179569703428024 0.2877217852556549 0  0.1258346557601885 0.2699740073054968 0  1.722140693354707 0.282908100935778 0  0.41206179117512 0.2448172567039922 0  0.3702471778075604 0.2265217604228704 0  0.3714881805374215 0.1786967818665642 0  1.77397096061971 0.2481483237422926 0  2.105123889160691 0.03743885948498647 0  1.001138337938679 0.229719337663998 0  1.051242910646791 0.2854826559431138 0  1.395420985247586 0.18
[...]
<PointData  Vectors="f_37"> 
<DataArray  type="Float64"  Name="f_37"  NumberOfComponents="3" format="ascii">2.4946101622245932e-07 4.5835639799301405e-08 0.0000000000000000e+00  -4.4426755639698343e-06 -3.5410609391529401e-07 0.0000000000000000e+00  -6.5553030423494337e-07 7.8328966875553620e-09 0.0000000000000000e+00  -7.6210487926542232e-07 2.1586365458384081e-09 0.0000000000000000e+00  -5.2281901445912319e-08 3.0237463398328952e-07 0.0000000000000000e+00  1.2204972469243267e-07 -7.3277970910203989e-08 0.0000000000000000e+00  1.2734920777643031e-07 1.6292415107773886e-07 0.0000000000000000e+00  -9.1191122069987140e-07 -9.8815942049268840e-08 0.0000000000000000e+00  -8.4802257336389542e-07 -1.3485055742845097e-07 0.0000000000000000e+00  1.2595642113668895e-07 -4.6427265173318478e-07 0.0000000000000000e+00  -9.4113567328492473e-07 -5.2525855593121953e-07 0.0000000000000000e+00  -1.0708361371290000e-06 -2.5215702413645924e-07 0.0000000000000000e+00  4.1649542998198038e-07 -7.3600380252644212e-08 0.0000000000000000e+00  -3.5901415185994433e-07 -5.3187899308801040e-07 0.0000000000000000e+00  -4.0875805218346171e-07 -1.3102907526527768e-07 0.0000000000000000e+00  -9.2977790751382499e-07 -2.0105015071971352e-07 0.0000000000000000e+00  2.3652298505565696e-06 4.3381354352333431e-07 0.0000000000000000e+00  3.4755321322304472e-01 9.6686782907384916e-02 0.0000000000000000e+00  1.7001646097778908e-06 -2.0279791488685822e-08 0.0000000000000000e+00  -1.0855017472651530e-06 4.0156381815593499e-07 0.0000000000000000e+00  -1.2705485888050909e-06 -4.3708723074560823e-07 0.0000000000000000e+00  -8.5130630501534578e-08 -6.3498239157217703e-07 0.0000000000000000e+00  3.8540159998403357e-07 1.6308299412642350e-08 0.0000000000000000e+00  -5.1525739021062637e-07 -1.7692669645026399e-06 0.0000000000000000e+00  -3.1222280479065926e-06 -1.5541578562117456e-06 0.0000000000000000e+00  -4.5168013841782848e-06 -4.1206340590989181e-07 0.0000000000000000e+00  -4.4607608275317698e-06 -1.3887269118614814e-07 0.0000000000000000e+00  -3.1559654544603670e-07 9.4429614573297636e-08 0.0000000000000000e+00  -4.0128441427635416e-07 1.1372486420511570e-07 0.0000000000000000e+00  1.6583343184141591e-01 -4.3446952519651627e-07 0.0000000000000000e+00  -8.8454547644253603e-07 -3.1852030994637983e-08 0.0000000000000000e+00  3.0853009427737249e-06 1.3330832766834953e-07 0.0000000000000000e+00  -5.5114702561657139e-07 -8.2846406474441143e-08 0.0000000000000000e+00  4.2306530232467318e-07 4.4442221785273104e-08 0.0000000000000000e+00  -1.5336734723568391e-07 -5.2698390736511425e-08 0.0000000000000000e+00  -1.0265692253758056e-06 2.9097336031243207e-09 0.0000000000000000e+00  -1.5135845343668739e-06 6.5547374208219616e-08 0.0000000000000000e+00  -2.5946645859192858e-06 -4.7848879368538820e-07 0.0000000000000000e+00  -8.7786387906653914e-06 -1.1488945325053252e-06 0.0000000000000000e+00  -7.7230102512301662e-07 -9.7085597445107959e-08 0.0000000000000000e+00  -1.8024353315811407e-06 1.5559846585509666e-07 0.0000000000000000e+00  8.4192808961368371e-07 -3.0393906763509039e-07 0.0000000000000000e+00  -3.5813290166735887e-07 -1.5416066670934452e-08 0.0000000000000000e+00  -3.8596389617387230e-07 -1.7762146444058602e-08 0.0000000000000000e+00  -1.7364539918397093e-07 -1.7063474808788090e-08 0.0000000000000000e+00  2.7261832556770377e-01 -4.0922049946620589e-02 0.0000000000000000e+00  2.3478809311286736e-01 2.2549715076595638e-02 0.0000000000000000e+00  1.5144155221349384e-01 -1.3337254357902300e-02 0.0000000000000000e+00  2.6793255004331862e-01 -4.4101113285851701e-02 0.0000000000000000e+00  2.3356594189623739e-01 -5.7777742596753741e-04 0.0000000000000000e+00  2.3321135254518224e-01 -1.6194492138062637e-05 0.0000000000000000e+00  2.7214416995041632e-07 4.8760850315106719e-09 0.0000000000000000e+00  1.0108512500358316e-07 3.0761677957101159e-09 0.0000000000000000e+00  -4.5225879121796075e-07 7.5643979217951936e-09 0.0000000000000000e+00  1.8475034642651231e-01 -3.3951483377026790e-04 0.0000000000000000e+00  -1.4015011193974158e-06 -1.5759956900584816e-07 0.0000000000000000e+00  2.2342809309209541e-01 -6.2974247560651772e-02 0.0000000000000000e+00  -2.7451351304318804e-06 4.3836430972394469e-07 0.0000000000000000e+00  -6.3282391378911615e-07 -1.0539302387490270e-07 0.0000000000000000e+00  8.4988882526036704e-07 2.9169091446225719e-07 0.0000000000000000e+00  -2.6674561480567762e-07 -9.7566679050280861e-09 0.0000000000000000e+00  -3.4866399597528479e-07 -8.6708180108133949e-08 0.0000000000000000e+00  -8.5212851568948975e-07 -6.9170444896387121e-08 0.0000000000000000e+00  -3.7936831731283507e-07 -5.9953674509869488e-08 0.0000000000000000e+00  -2.4032211676184178e-06 5.5327037935191208e-08 0.0000000000000000e+00  -3.2387092474184312e-07 3.5743993564487558e-08 0.0000000000000000e+00  1.2275403274997390e-06 -2.2921365457777432e-07 0.0000000000000000e+00  1.1649510070861739e-01 -6.8341919654777252e-04 0.0000000000000000e+00  -2.1223822163332921e-07 -7.7122175341921558e-08 0.0000000000000000e+00  2.5070126941727983e-01 1.1878023680563836e-02 0.0000000000000000e+00  2.6493483946370033e-01 -3.7566034412372468e-02 0.0000000000000000e+00  1.0617249941512143e-01 5.0284983110974214e-03 0.0000000000000000e+00  3.0485342911504076e-01 1.0643493066394712e-01 0.0000000000000000e+00  1.7866749729226808e-01 2.5330382696462983e-02 0.0000000000000000e+00  3.4640507033416457e-01 -3.7916995789162376e-02 0.0000000000000000e+00  2.7029915102500984e-01 -5.1875562645183358e-02 0.0000000000000000e+00  6.6133424165530780e-02 4.4609495452435630e-02 0.0000000000000000e+00  2.0819830575697307e-01 4.1499327875014706e-03 0.0000000000000000e+00  2.0633457098102831e-01 -8.0724870478024837e-04 0.0000000000000000e+00  1.8136283034240691e-01 5.7522121300701817e-03 0.0000000000000000e+00  7.5234906105753299e-02 4.3274581643349989e-08 0.0000000000000000e+00  2.7319253768561907e-01 1.6937063437454234e-08 0.0000000000000000e+00  2.2294502882659584e-01 -9.2405921997068649e-04 0.0000000000000000e+00  2.4044651844762993e-01 7.2432331423351523e-02 0.0000000000000000e+00  1.6035260236993967e-01 -2.5511754290920996e-04 0.0000000000000000e+00  1.5675695221109515e-01 -2.0951105403770383e-02 0.0000000000000000e+00  1.4714506824826515e-01 3.7322294979414833e-03 0.0000000000000000e+00  3.2394179761735137e-01 -2.3629492871727352e-02 0.0000000000000000e+00  1.8015642787130057e-01 2.4139172168182376e-04 0.0000000000000000e+00  2.0172224568676564e-01 1.3472679460767070e-02 0.0000000000000000e+00  9.1714235373466638e-02 -1.4848180271406438e-02 0.0000000000000000e+00  3.9200424160961705e-01 -3.7600749100581796e-02 0.0000000000000000e+00  6.0620488804967010e-02 6.7465788107067930e-03 0.0000000000000000e+00  1.8368223146104815e-01 -3.3304117093683929e-04 0.0000000000000000e+00  2.8677902287326662e-01 -3.4733478155404167e-02 0.0000000000000000e+00  2.1027762108794271e-01 -2.3544718253676787e-02 0.0000000000000000e+00  1.1880169019988551e-01 -3.2850630529554226e-02 0.0000000000000000e+00  3.0721855293897659e-02 6.9733055902612903e-03 0.0000000000000000e+00  4.2756876871928795e-01 -3.5518211912250089e-02 0.0000000000000000e+00  -2.3248858989152987e-07 -3.4598302885214182e-08 0.0000000000000000e+00  2.3164952972683339e-01 5.9621162211142310e-03 0.0000000000000000e+00  -9.6835004782064181e-07 8.9921143850067149e-09 0.0000000000000000e+00  1.8183372038733001e-01 1.7970017673171589e-02 0.0000000000000000e+00  2.7618676149330373e-01 -3.2541434135821112e-02 0.0000000000000000e+00  2.9013121695674232e-01 -6.8157490362592291e-02 0.0000000000000000e+00  1.2570460098674421e-01 7.1231676270936059e-02 0.0000000000000000e+00  2.3114786862204126e-01 1.4772312186241985e-02 0.0000000000000000e+00  2.0877510157311155e-01 2.4432803699703073e-02 0.0000000000000000e+00  1.4759973338351953e-01 7.4004743086187139e-02 0.0000000000000000e+00  4.5684175194826770e-01 -1.3046840310841365e-02 0.0000000000000000e+00  7.4249085275078217e-02 1.8260960651833268e-02 0.0000000000000000e+00  -2.0255371615325177e-07 -1.1579696832898871e-07 0.0000000000000000e+00  1.3984677516129002e-01 -3.5396901537467645e-04 0.0000000000000000e+00  -1.6132229689586229e-06 7.9643601952760824e-09 0.0000000000000000e+00  -1.2958925616892180e-06 8.4170539840523028e-09 0.0000000000000000e+00  -2.0946185270782416e-07 -8.3117635231677053e-08 0.0000000000000000e+00  2.4464303268062623e-01 3.9753477356776236e-03 0.0000000000000000e+00  -1.8912063286659677e-06 -1.3890547956609976e-08 0.0000000000000000e+00  4.0378397001086147e-01 4.2376742524744278e-02 0.0000000000000000e+00  3.7423212922204646e-01 7.7598320205226820e-02 0.0000000000000000e+00  1.5212486869872538e-01 4.4529056683395400e-03 0.0000000000000000e+00  3.4356593306209499e-01 1.3162891557126449e-02 0.0000000000000000e+00  -1.5013981353505565e-06 -1.8180503095141423e-07 0.0000000000000000e+00  -8.5586197610187735e-08 -1.0453019184391781e-08 0.0000000000000000e+00  -5.6005977794030942e-07 -5.0117388228315365e-08 0.0000000000000000e+00  1.5504130275033715e-01 -4.9337116565651763e-04 0.0000000000000000e+00  9.8472408860174596e-02 -2.4486543276103180e-03 0.0000000000000000e+00  -2.8293449502798073e-07 -9.6810975731783190e-08 0.0000000000000000e+00  1.4538582117171026e-01 -2.3624893005989030e-02 0.0000000000000000e+00  1.5532154298859563e-01 1.4930700407089167e-01 0.0000000000000000e+00  3.9733149289345404e-01 -3.4523362389416425e-02 0.0000000000000000e+00  1.9128935940738450e-06 -8.2161043330212751e-08 0.0000000000000000e+00  1.1654372215980950e-01 4.6952583839022233e-02 0.0000000000000000e+00  2.5604924712020177e-01 -6.6020322786251209e-02 0.0000000000000000e+00  7.6740779743669510e-02 -2.6493937715747561e-02 0.0000000000000000e+00  1.7641490951116852e-06 -4.4201073311390956e-07 0.0000000000000000e+00  3.6742880420113921e-02 6.3846822945020990e-03 0.0000000000000000e+00  2.4433583736075248e-01 2.5335713343258799e-02 0.0000000000000000e+00  2.3645857966418185e-01 -2.8155905620361722e-02 0.0000000000000000e+00  2.3591056736829810e-01 -5.1568940104629209e-02 0.0000000000000000e+00  1.7651050344647140e-01 7.4440424531101923e-03 0.0000000000000000e+00  1.3295569628708684e-01 -8.9061078306471100e-03 0.0000000000000000e+00  2.3885331196601670e-01 2.5099764232896109e-02 0.0000000000000000e+00  6.7687378438058277e-02 1.7271896755986890e-02 0.0000000000000000e+00  1.2010602954074327e-01 -4.2800062672946147e-03 0.0000000000000000e+00  2.3123110128780870e-02 1.0848529765773334e-02 0.0000000000000000e+00  2.1176490555698066e-01 7.7206879035590743e-03 0.0000000000000000e+00  3.5729994307854639e-02 1.5557494546685676e-02 0.0000000000000000e+00  1.0151857344803300e-01 -2.0212210896955234e-02 0.0000000000000000e+00  -9.3841843957430915e-07 -1.1287732687114765e-07 0.0000000000000000e+00  -1.5664051317314898e-06 3.3941120714712028e-07 0.0000000000000000e+00  -6.1143425221835634e-07 3.8713934328544387e-07 0.0000000000000000e+00  3.4649563258621024e-01 -3.8269377600880970e-02 0.0000000000000000e+00  7.8052515036095033e-02 3.1257558812887408e-02 0.0000000000000000e+00  -2.2446078216051605e-06 -1.0613448619292125e-07 0.0000000000000000e+00  5.6187524602543752e-07 1.6521199459222340e-07 0.0000000000000000e+00  9.9679029954581666e-02 1.0564581233583333e-02 0.0000000000000000e+00  2.2406409436690047e-01 1.2587635668542556e-02 0.0000000000000000e+00  -4.2865494724910928e-07 -6.3649495400046129e-08 0.0000000000000000e+00  -1.5570129790869247e-06 1.4082206733432207e-07 0.0000000000000000e+00  -1.9189250792421530e-07 1.8040061821352331e-07 0.0000000000000000e+00  -5.2876782334747566e-07 -6.2815573118556830e-08 0.0000000000000000e+00  -2.5589426870209061e-08 5.3634332736411037e-09 0.0000000000000000e+00  3.4644690582366043e-07 -3.6023555331702145e-08 0.0000000000000000e+00  -2.2324988838493658e-06 -2.6026309885305772e-07 0.0000000000000000e+00  1.8930737025866632e-07 3.2129447912894467e-08 0.0000000000000000e+00  9.7273904753033331e-08 5.1225659511135716e-09 0.0000000000000000e+00  -2.2219064212422890e-07 1.1463488051432188e-07 0.0000000000000000e+00  4.5875352329524421e-07 -3.9173026113854381e-08 0.0000000000000000e+00  -8.6857885479152337e-07 1.0340695424431425e-11 0.0000000000000000e+00  -2.4934064403013578e-07 1.5608089502183887e-09 0.0000000000000000e+00  4.5167139724192611e-02 5.3999403593488204e-03 0.0000000000000000e+00  1.2633054642617103e-01 -1.2248618604619201e-02 0.0000000000000000e+00  2.1682998119514293e-01 -1.3600483231799161e-02 0.0000000000000000e+00  1.0870337227723986e-01 1.0865596422654904e-02 0.0000000000000000e+00  2.9146646379909663e-01 7.5774053511006093e-02 0.0000000000000000e+00  3.3736046946026654e-01 5.3508416284755431e-02 0.0000000000000000e+00  3.1540524015424809e-01 2.6289393879111878e-02 0.0000000000000000e+00  1.4332682995494234e-01 -3.3220867267413630e-04 0.0000000000000000e+00  2.3826138583048426e-01 2.5342743584560182e-02 0.0000000000000000e+00  3.1621925536782730e-01 -6.3669433833611788e-02 0.0000000000000000e+00  9.4654825790563335e-02 -9.3381474042738642e-03 0.0000000000000000e+00  2.3255916304907037e-01 -8.9829233041409699e-04 0.0000000000000000e+00  2.3330506849634614e-01 -9.7856241498409666e-04 0.0000000000000000e+00  2.1945147388304251e-01 -5.1629795802026043e-04 0.0000000000000000e+00  2.2931942842888817e-01 2.1143885709436093e-03 0.0000000000000000e+00  1.2672880334036146e-01 1.1465636050086230e-03 0.0000000000000000e+00  1.3478941288927201e-01 -3.8635240830926516e-04 0.0000000000000000e+00  1.9876717224371346e-01 1.9046889155209984e-01 0.0000000000000000e+00  3.8908835906169316e-02 4.5062195941506199e-02 0.0000000000000000e+00  1.4751817794023389e-01 -1.2511842812848849e-02 0.0000000000000000e+00  2.1974178250431306e-01 -4.9012841203472145e-03 0.0000000000000000e+00  2.0898708553664858e-01 -1.5010420883546393e-03 0.0000000000000000e+00  2.1989892705010672e-01 2.9130425537058066e-02 0.0000000000000000e+00  3.0085415730203358e-01 -7.3866768507170333e-02 0.0000000000000000e+00  2.1787157002543173e-01 -7.8068781192333495e-04 0.0000000000000000e+00  8.5482885925694682e-02 -3.6754515836159782e-03 0.0000000000000000e+00  2.6645684876164910e-01 -2.2548468850090642e-02 0.0000000000000000e+00  3.2613234753709730e-01 -4.5980518666498639e-02 0.0000000000000000e+00  1.2527734109579913e-01 5.1811606677572772e-03 0.0000000000000000e+00  2.1447510394871291e-01 1.5473312111105456e-02 0.0000000000000000e+00  1.2999657581320262e-01 9.3801716014951385e-04 0.0000000000000000e+00  1.6270925353455440e-01 7.6168383067350173e-02 0.0000000000000000e+00  2.4652261544969925e-01 1.3037085702541532e-01 0.0000000000000000e+00  2.1994259184383702e-01 3.1079924861204773e-02 0.0000000000000000e+00  1.6920175521791853e-01 -1.1057236733820839e-02 0.0000000000000000e+00  2.6219039632373364e-01 -3.0999882490822802e-02 0.0000000000000000e+00  2.8236801116665333e-01 -4.3809988005313751e-02 0.0000000000000000e+00  3.9246574844978677e-01 1.7997329201378500e-02 0.0000000000000000e+00  2.4458846384635699e-01 -4.1606600184309082e-02 0.0000000000000000e+00  2.2886110014424274e-01 -4.2800743065459022e-02 0.0000000000000000e+00  3.4064020580755483e-01 1.8374113497159811e-01 0.0000000000000000e+00  2.7752427517913147e-01 3.6385679830600148e-02 0.0000000000000000e+00  2.3159632947262279e-01 7.2356832117417155e-02 0.0000000000000000e+00  2.3417912789852816e-01 1.3145685475860387e-02 0.0000000000000000e+00  2.0066889926399573e-01 -6.0941029296796413e-04 0.0000000000000000e+00  2.2199073151756304e-01 -5.0743088026537482e-04 0.0000000000000000e+00  2.9895987149035846e-01 -3.8238558032414174e-02 0.0000000000000000e+00  1.2565726709555583e-01 2.5518192002726144e-02 0.0000000000000000e+00  6.9596734954432818e-02 3.2325763653591908e-03 0.0000000000000000e+00  2.1002385018175132e-01 2.1545218419625353e-02 0.0000000000000000e+00  1.5826051984621364e-01 4.9252807295070131e-02 0.0000000000000000e+00  2.5063720105444515e-01 -4.7011518519573220e-02 0.0000000000000000e+00  1.2981419409166853e-01 -2.0125268200422170e-02 0.0000000000000000e+00  4.4124781330921937e-02 1.2662394909862835e-03 0.0000000000000000e+00  4.6293150958003437e-01 4.3234837106137215e-02 0.0000000000000000e+00  1.0404568424768176e-01 1.7464374433054952e-03 0.0000000000000000e+00  3.4833688557823750e-01 -2.6635296257277886e-02 0.0000000000000000e+00  2.0481310218139789e-01 -6.1168235580787318e-04 0.0000000000000000e+00  2.3904741802869872e-01 -1.2016652602949577e-02 0.0000000000000000e+00  1.6732403277940813e-01 1.7138962167617112e-02 0.0000000000000000e+00  2.2442456716659370e-01 -1.1383444838660573e-02 0.0000000000000000e+00  1.5048744971366004e-01 -3.8149639080685388e-02 0.0000000000000000e+00  2.7297679309493891e-02 1.9229676631919495e-03 0.0000000000000000e+00  1.1100036837896354e-01 3.6732989147848019e-03 0.0000000000000000e+00  2.5500861206417102e-03 -1.0697929435570745e-03 0.0000000000000000e+00  8.7480073944284684e-02 5.9111698607783366e-03 0.0000000000000000e+00  6.2804721364620453e-02 1.7640142025378967e-02 0.0000000000000000e+00  1.9810632800647845e-01 8.6933122792024863e-04 0.0000000000000000e+00  1.0637931965106776e-01 1.0921243627600675e-04 0.0000000000000000e+00  4.0229275424835914e-01 -3.9550652111519952e-02 0.0000000000000000e+00  2.3395563807390723e-01 2.0050238541001877e-02 0.0000000000000000e+00  2.0720752584695101e-01 3.1772225537175930e-03 0.0000000000000000e+00  3.5785433565564864e-02 8.1473497162656935e-08 0.0000000000000000e+00  7.7443624814357737e-02 5.5298153237299807e-03 0.0000000000000000e+00  1.5902866363520002e-01 4.2064198584176586e-02 0.0000000000000000e+00  2.2707895291592400e-01 1.6589796680505223e-03 0.0000000000000000e+00  2.3009309827376095e-01 1.6690201810961678e-02 0.0000000000000000e+00  1.6707327852677750e-01 -6.6618812755187542e-03 0.0000000000000000e+00  3.2604893732245682e-01 -2.6677412466597428e-02 0.0000000000000000e+00  3.8094146483083835e-01 3.5634077476289674e-02 0.0000000000000000e+00  1.4188853285955369e-01 -5.4902693483650953e-03 0.0000000000000000e+00  8.7106374178153576e-02 4.6642358169775074e-03 0.0000000000000000e+00  1.1154522801810646e-01 -1.3644701588989272e-04 0.0000000000000000e+00  -7.9732034455578873e-03 1.5620263937350078e-02 0.0000000000000000e+00  3.3356378002016557e-01 3.1564847499563991e-08 0.0000000000000000e+00  6.5541404487295549e-02 -5.1905980996708352e-03 0.0000000000000000e+00  3.9185567561369899e-01 3.6356139509104829e-03 0.0000000000000000e+00  1.1701147527757511e-01 -1.8266539706258660e-04 0.0000000000000000e+00  3.2253871836798770e-01 -3.5353418637378974e-02 0.0000000000000000e+00  1.1852650684170489e-01 -3.1762479105642115e-08 0.0000000000000000e+00  2.2264160374906866e-01 -5.0676554778460929e-04 0.0000000000000000e+00  1.1054431496436774e-01 -1.1751831692181381e-04 0.0000000000000000e+00  2.1733315386908744e-01 -2.9430415384359166e-08 0.0000000000000000e+00  1.1027536669087780e-01 1.9118732100925366e-03 0.0000000000000000e+00  1.7140716534367773e-01 -1.3634239307783394e-02 0.0000000000000000e+00  2.2910228253879106e-01 -7.6900844151072930e-04 0.0000000000000000e+00  1.7195469736628388e-02 -8.0932470179864938e-03 0.0000000000000000e+00  3.8125902253953931e-02 -1.0876761912670271e-02 0.0000000000000000e+00  1.6228573666200291e-01 -5.0187340646771605e-02 0.0000000000000000e+00  7.1658610911695406e-03 3.3218684334080195e-03 0.0000000000000000e+00  3.1366459791022649e-01 -1.6340911275790345e-02 0.0000000000000000e+00  2.8718159817970929e-01 -1.7077072868714630e-02 0.0000000000000000e+00  4.0934437940564833e-01 -4.5534269560869228e-02 0.0000000000000000e+00  1.2625101599471952e-01 1.0092001041468149e-03 0.0000000000000000e+00  2.7520066348181366e-01 -3.3970678273660120e-02 0.0000000000000000e+00  2.8132652426043053e-01 -1.6774921124846989e-02 0.0000000000000000e+00  1.9094688967764725e-01 -6.8754467167985410e-04 0.0000000000000000e+00  1.9035606500442728e-01 -2.9699723765521446e-02 0.0000000000000000e+00  8.2615446807631457e-02 -1.4992241909868895e-04 0.0000000000000000e+00  1.8766159201345747e-01 -7.5984844336786355e-03 0.0000000000000000e+00  3.