<?xml version="1.0"?>
<VTKFile type="UnstructuredGrid"  version="0.1"  >
<UnstructuredGrid>
<Piece  NumberOfPoints="1404" NumberOfCells="2604">
<Points>
<DataArray  type="Float64"  NumberOfComponents="3"  format="ascii">0 0.41 0  0 0 0  2.2 0 0  2.2 0.41 0  0.2353553390593274 0.2353553390593274 0  0.25 0.2 0  0.2353553390593274 0.1646446609406726 0  0.2 0.15 0  0.1646446609406726 0.1646446609406726 0  0.15 0.2 0  0.1646446609406726 0.2353553390593274 0  0.2 0.25 0  0.6923879532511287 0.188268343236509 0  0.7 0.15 0  0.6923879532511287 0.1117316567634909 0  0.6707106781186547 0.07928932188134523 0  0.6382683432365089 0.05761204674887133 0  0.6 0.04999999999999999 0  0.5617316567634909 0.05761204674887134 0  0.5292893218813453 0.07928932188134524 0  0.5076120467488713 0.111731656763491 0  0.5 0.15 0  0.5076120467488713 0.188268343236509 0  0.5292893218813453 0.2207106781186547 0  0.561731656763491 0.2423879532511287 0  0.6 0.25 0  0.6382683432365089 0.2423879532511287 0  0.6707106781186547 0.2207106781186547 0  1.1 0 0  0 0.205 0  1.1 0.41 0  0.55 0 0  0.55 0.41 0  0.275 0 0  0.8250000000000001 0 0  0.275 0.41 0  0.8250000000000001 0.41 0  0.6875 0 0  0.61875 0 0  1.65 0.41 0  1.65 0 0  1.375 0 0  1.375 0.41 0  1.925 0 0  1.925 0.41 0  1.5125 0.205 0  1.7875 0.205 0  0.9625000000000001 0.205 0  1.2375 0.205 0  2.2 0.205 0  1.99375 0.2152743902439024 0  0.4125 0.41 0  2.0625 0 0  2.0625 0.41 0  2.2 0.3075 0  1.7875 0.41 0  1.375 0.1486128048780488 0  1.5125 0 0  1.7875 0 0  1.5125 0.41 0  0.9625000000000001 0.41 0  0.4125 0 0  0.1375 0 0  0.1375 0.41 0  0.6875 0.41 0  0.9625000000000001 0 0  1.2375 0 0  1.1 0.1486128048780488 0  1.2375 0.41 0  1.65 0.1486128048780487 0  0.823495464168302 0.2603780552348366 0  0.3738707794507017 0.2720196349488618 0  0.3662291281331582 0.1311456406657909 0  1.676715909090909 0.2793064024390244 0  1.126715909090909 0.2793064024390244 0  1.348284090909091 0.2793064024390244 0  0.8287581077665108 0.1302150898054257 0  1.894702181800738 0.1282910975492754 0  2.092797818199262 0.1282910975492754 0  1.85625 0.3075 0  0 0.3075 0  0 0.1025 0  2.099172119769978 0.25625 0  0.4752414543992246 0.3180372603390748 0  1.99375 0.08395950269330846 0  1.459960956013612 0.3075 0  1.569025960719943 0.2986889805672169 0  1.03125 0.3278689922742084 0  1.959375 0.3126371951219512 0  1.749222215368287 0.1025 0  1.275777784631713 0.1025 0  0.9228016959331474 0.3075 0  1.000777784631713 0.1025 0  2.2 0.1025 0  1.225938124459196 0.3075 0  1.550777784631713 0.1025 0  1.44375 0.07430640243902442 0  1.16875 0.07430640243902439 0  0.7562500000000001 0.3358727844323386 0  0.89375 0 0  1.899250267340833 0.2229966846119207 0  0.61875 0.41 0  1.766482954545455 0.2934032012195123 0  1.046078563095834 0.2389031808701145 0  1.421109702350723 0.2261157654379721 0  0.07567171807980319 0.25625 0  0.2511897295290552 0.3235829392832554 0  0.07655002503762308 0.1488653460959645 0  0.1377245246847496 0.3206030474919778 0  0.6694099692696568 0.3242771941727899 0  0.9168971191497528 0.1295727156104653 0  0.7562500000000001 0 0  2.118919042110979 0.3422084711244843 0  2.13125 0 0  0.06875000000000001 0 0  1.30625 0.41 0  1.597888256393107 0.2173787389261347 0  0.34375 0.41 0  0.2493272016354703 0.08091360081773515 0  0.5588896233436766 0.3264056208677571 0  1.829299675393195 0.07400700849299596 0  0.1334079128307869 0.08523463035786674 0  1.71875 0.41 0  0.06875000000000001 0.41 0  1.16875 0.41 0  2.038220665644273 0.332420740103091 0  0.8810647413215221 0.2027360103977071 0  0.34375 0 0  0.7453891198966415 0.2471459041008237 0  0.42112093004955 0.1988123139090554 0  0.8314023090855964 0.3351170841770613 0  0.89375 0.41 0  0.7906250000000001 0.06615386481594063 0  1.452769549894695 0.1548122580621249 0  1.369219062229598 0.07430640243902442 0  1.30625 0 0  1.07420695807087 0.07430640243902439 0  1.720943423819132 0.1714577452753128 0  1.157188124459196 0.205 0  1.304056576180868 0.1714577452753128 0  1.67579304192913 0.07430640243902437 0  1.209670467133757 0.136210026696477 0  0.4312800784902823 0.08036147352247747 0  0.8723959680194693 0.07066860609690805 0  1.025335513626278 0.1700681449722324 0  0.7945632284247136 0.1940204203251442 0  0.378125 0.3452261501101892 0  0.3307109909790086 0.2037165635083759 0  0.3009701032039409 0.2702970083403109 0  0.20625 0.41 0  1.58125 0 0  0.4812500000000001 0 0  0.9838963872396855 0.2722244191167347 0  0.06772484939107212 0.3260067317374387 0  0.20625 0 0  1.58125 0.41 0  1.631724228912893 0.3381867502687533 0  1.825608881788174 0.14499488549201 0  1.85625 0 0  1.44375 0 0  1.44375 0.41 0  1.85625 0.41 0  2.13125 0.41 0  0.7562500000000001 0.41 0  0.4812500000000001 0.41 0  1.16875 0 0  1.03125 0.41 0  1.03125 0 0  1.71875 0 0  1.99375 0 0  1.99375 0.41 0  0.9408708167433545 0.0651989315768642 0  1.340625 0.3489494290853124 0  1.134375 0.3489494290853123 0  1.700180620188976 0.3438659752031281 0  0.29668452290037 0.1318471691375986 0  0.3175441051360096 0.06496934809856265 0  0.06509151636162461 0.08140814015999148 0  2.135782184673599 0.07126652247502523 0  1.668441847249787 0.2129203728327609 0  1.295782514339747 0.2378437748815763 0  1.409375 0.3520314716057996 0  2.129248544730567 0.1906135162504124 0  2.060771381434487 0.1989445750470348 0  2.013252586573865 0.1496169464686054 0  1.942766402200229 0.1734448904596831 0  1.895522487186454 0.06076163953489683 0  2.069553871656643 0.06605731020975725 0  0.4670911801404742 0.2498408582391372 0  0.7622743084658112 0.1264100838268133 0  1.274680914880868 0.3520219391081363 0  0.3148669572599245 0.3331753056385887 0  1.614713220494657 0.09473434380863296 0  1.72990325744076 0.2380068107952482 0  1.356580098625191 0.2120393231351682 0  2.034370752044885 0.2668681600792073 0  1.51768709249349 0.3426260931494756 0  1.561883724969884 0.1650446847858835 0  1.197344062229598 0.2523725417393646 0  1.804085235518364 0.3468178408964637 0  1.817887819205233 0.2589243285818559 0  1.905897727272727 0.3485060975609756 0  0.7296439733931823 0.06337466644369745 0  0.4250935971865949 0.1394919578475796 0  0.3773030136511669 0.05130372097998036 0  1.192836486056382 0.3562350748565544 0  1.1029124365364 0.226143510831178 0  1.28257088594801 0.2944411014911587 0  0.1905185804731426 0.06029880676029167 0  1.474860187679412 0.2504218616229368 0  1.406767003493824 0.2829282258560709 0  0.5209826960981064 0.2830664557824064 0  0.5131119502780163 0.3617405848213254 0  0.1948220106098172 0.3081993407644811 0  1.845656689180403 0.1998310418452388 0  2.144958525570388 0.2909790873294231 0  2.2 0.15375 0  0.8833025251326762 0.2625402923007629 0  0.171875 0.3653875762360952 0  1.57794966442982 0.3540357145964566 0  0.446875 0.366068291212731 0  0.4272051715206439 0.2891929346190664 0  1.508991196088596 0.1421783375065625 0  1.50436820029908 0.06143401634903343 0  1.223857000523521 0.08235548624535324 0  0.6137904613287555 0.3066826366281556 0  1.153316824384777 0.1289850171317838 0  0.9751573703656133 0.327632618473408 0  2.148922302309752 0.1258841779285271 0  0.9281250000000001 0.3643758685795699 0  1.621993280276081 0.2841214267927899 0  1.550118654119087 0.2461998729100966 0  1.327182649291491 0.1216967252533594 0  0.9939955742738924 0.04663549843168518 0  1.753125 0.04556020050186112 0  1.271875 0.04556020050186116 0  0.9734326767716519 0.1506854560854393 0  0.103125 0.3675775577080512 0  1.94956388244759 0.1180512551534177 0  1.949997712993411 0.04965831614304109 0  0.717433898748555 0.295596016333797 0  1.771961817615021 0.1530278789497521 0  1.909246823951428 0.2812757146784527 0  0 0.35875 0  1.050632804931928 0.1226269704412814 0  0.05695108326502596 0.2024009637347154 0  1.948575539857022 0.2445328248721197 0  1.697271520964565 0.1233917627620729 0  1.065625 0.3689344961371042 0  1.085849084308977 0.3170853572226867 0  0.1015495998772944 0.04226029099983852 0  1.577403511714593 0.05463601888079143 0  1.751571320346033 0.3651102912045228 0  2.2 0.35875 0  0.7441773632462837 0.1786786606458751 0  0 0.05125 0  1.466879772203159 0.3611261772912453 0  0.6282230348858767 0.3577675483994025 0  1.990280163552011 0.3564754268533217 0  1.17471064520912 0.2990917256188288 0  0 0.25625 0  2.2 0.25625 0  2.2 0.05125 0  0 0.15375 0  1.853978576207987 0.35875 0  1.515638456102889 0.2882700110184686 0  2.150453692751374 0.2387066338105111 0  1.323782677156475 0.04897634338873398 0  1.409375 0.03715320121951221 0  1.406484531114799 0.1087852750766809 0  1.134375 0.03715320121951219 0  0.721875 0.3729363922161693 0  0.7941695928236929 0.3696489254637395 0  0.7934827162619036 0.3013409431456604 0  1.627401732573545 0.04552157221025036 0  0.9352049974617431 0.2507047965699472 0  0.8763260682738339 0.3611103317460093 0  2.045405893604797 0.1105340662939892 0  1.255408269734577 0.1577307500159216 0  2.028125 0.03707597992059326 0  1.003030137506755 0.3689344961371042 0  1.248258025468107 0.2565907092181813 0  1.203125 0.03661323374043041 0  0.4800125512335631 0.0549472816999725 0  2.072662025974815 0.2975086504196739 0  0.240625 0.3729825336867542 0  1.113252391110535 0.10238286244357 0  1.071052763974265 0.1885202618768825 0  0.8738809401657862 0.3106483608284829 0  0.6786819423003397 0.2677558482644021 0  1.887722846421017 0.1760882698830035 0  1.472640588990488 0.1118278026240017 0  0.5843750000000001 0.41 0  1.865937103925594 0.2604137786483804 0  1.463913572748262 0.2030442564990043 0  1.376426316059077 0.3186741374914345 0  0.1038643885363755 0.2162701735320032 0  0.1769473813227781 0.1070849728467114 0  0.458787839809176 0.171541653775316 0  0.240625 0 0  0.04179569703428024 0.2877217852556549 0  0.1258346557601885 0.2699740073054968 0  1.722140693354707 0.282908100935778 0  0.41206179117512 0.2448172567039922 0  0.3702471778075604 0.2265217604228704 0  0.3714881805374215 0.1786967818665642 0  1.77397096061971 0.2481483237422926 0  2.105123889160691 0.03743885948498647 0  1.001138337938679 0.229719337663998 0  1.051242910646791 0.2854826559431138 0  1.395420985247586 0.18
[...]
<PointData  Vectors="f_37"> 
<DataArray  type="Float64"  Name="f_37"  NumberOfComponents="3" format="ascii">1.4862844919950170e-06 1.9957465946774574e-06 0.0000000000000000e+00  -3.5997121791354319e-06 -1.1823626651580298e-06 0.0000000000000000e+00  -1.1588820537960768e-06 4.4184915088932741e-09 0.0000000000000000e+00  -1.3996745459283310e-06 -2.2563583927488427e-08 0.0000000000000000e+00  6.5658239506247534e-06 1.1091737616572464e-06 0.0000000000000000e+00  9.4897507927417793e-06 -7.1285703434682620e-07 0.0000000000000000e+00  9.0089486494570971e-06 1.5610483189185267e-06 0.0000000000000000e+00  4.6095336917195223e-06 -6.3259208029995579e-06 0.0000000000000000e+00  -2.1118823379369663e-05 2.0052013917088643e-07 0.0000000000000000e+00  6.7575518043468511e-06 1.2080016805877329e-06 0.0000000000000000e+00  -2.7668072208176696e-06 -4.6279988735030258e-06 0.0000000000000000e+00  -7.8869855091573828e-06 1.6979747899133461e-06 0.0000000000000000e+00  5.6192463293772127e-06 6.3409313802630423e-06 0.0000000000000000e+00  5.3433312478105848e-06 7.2908316022803355e-06 0.0000000000000000e+00  7.5141479941955655e-06 9.3062309547383969e-06 0.0000000000000000e+00  1.3153974893756694e-05 4.3542791125729615e-06 0.0000000000000000e+00  1.0566766196169855e-05 -4.9319141107910719e-06 0.0000000000000000e+00  3.7066957947903661e-01 9.1567194966153689e-02 0.0000000000000000e+00  -1.5678924452202673e-05 -1.1004587967061210e-05 0.0000000000000000e+00  -2.7038797425186631e-05 2.7419024606791385e-08 0.0000000000000000e+00  -4.1412141715263752e-06 6.1825178273599577e-06 0.0000000000000000e+00  2.4274527851501940e-06 8.0929908084206213e-06 0.0000000000000000e+00  6.6491238146058147e-06 4.6266774434967024e-06 0.0000000000000000e+00  6.0919130743322180e-06 -2.8930791734186643e-06 0.0000000000000000e+00  -1.8468107689802654e-06 -3.6931003731261671e-06 0.0000000000000000e+00  -8.4054793994770521e-06 1.5551072675530542e-06 0.0000000000000000e+00  -8.1803253829090368e-06 7.5030210473127794e-06 0.0000000000000000e+00  7.1039265110511591e-06 8.4454087599024397e-06 0.0000000000000000e+00  -1.1571588798646639e-06 3.7962448949053199e-08 0.0000000000000000e+00  1.6583406478370127e-01 1.8410539708532584e-06 0.0000000000000000e+00  -1.6020832576844617e-06 -2.0174386589528936e-08 0.0000000000000000e+00  -6.5859257660937373e-06 -1.0408100451243023e-05 0.0000000000000000e+00  -7.6470347084910881e-08 -4.3746829367102814e-07 0.0000000000000000e+00  -2.5470273025666833e-06 1.3488566070905225e-07 0.0000000000000000e+00  -1.5020771047334206e-06 2.6236560535476046e-07 0.0000000000000000e+00  -1.8962813281163135e-06 1.8868989430863423e-07 0.0000000000000000e+00  -4.8060451770304552e-06 4.6142023836361458e-08 0.0000000000000000e+00  5.1851800468605869e-06 1.0729858915098007e-07 0.0000000000000000e+00  -1.4271397599126469e-06 -5.0019484985054634e-06 0.0000000000000000e+00  -1.6953672332299143e-06 1.0692415254895725e-08 0.0000000000000000e+00  -2.4089667180468633e-06 2.8247928520140742e-09 0.0000000000000000e+00  -1.4264629840891301e-06 -7.5124316353745625e-09 0.0000000000000000e+00  -8.3990571567870228e-07 -4.2016869440119126e-09 0.0000000000000000e+00  -1.0564579145633948e-06 8.2513149257284637e-09 0.0000000000000000e+00  -2.9817708798587918e-07 -1.8952464613880103e-08 0.0000000000000000e+00  1.8199584865685198e-01 -1.3137940137910816e-04 0.0000000000000000e+00  1.8199240231782560e-01 -7.9471312763676183e-06 0.0000000000000000e+00  1.8083650184875597e-01 -1.6845540086682615e-02 0.0000000000000000e+00  1.8199262622630930e-01 -1.4563159407327832e-03 0.0000000000000000e+00  1.8199507580196106e-01 -2.1998589983739684e-05 0.0000000000000000e+00  1.8199340167839909e-01 -1.1156158177584052e-05 0.0000000000000000e+00  -1.0838506549567142e-06 -1.5680741569392436e-07 0.0000000000000000e+00  -3.6955079659386761e-07 2.6055689064553637e-08 0.0000000000000000e+00  -1.0811448245491036e-06 2.2330514438867438e-08 0.0000000000000000e+00  1.8185774860855750e-01 -4.1567478637800730e-05 0.0000000000000000e+00  -1.5013609873447523e-06 -6.6089617066457841e-09 0.0000000000000000e+00  1.8179383233928539e-01 -3.7106822001992698e-04 0.0000000000000000e+00  -2.0311951586616138e-06 6.7243859260362436e-09 0.0000000000000000e+00  -1.8916229123752175e-06 -9.4619772546367303e-09 0.0000000000000000e+00  -1.3886408578822310e-06 -1.6645315905458893e-08 0.0000000000000000e+00  -1.5604110233958956e-06 -3.3159530389082973e-08 0.0000000000000000e+00  -4.1735678901597415e-06 6.8801067836981340e-08 0.0000000000000000e+00  2.1440044031138604e-06 -1.5190141874079132e-06 0.0000000000000000e+00  -5.2578512587421738e-06 -6.3916394595368438e-07 0.0000000000000000e+00  -2.8118965099417931e-06 2.5735989011762142e-07 0.0000000000000000e+00  -8.9186070558543080e-07 6.5434174456939849e-08 0.0000000000000000e+00  5.7715242857926293e-07 -1.7644566288893984e-10 0.0000000000000000e+00  1.7961039099085155e-01 -4.2697543546628101e-03 0.0000000000000000e+00  -5.6755352783047732e-07 -1.8595841873908349e-08 0.0000000000000000e+00  1.8197145127795586e-01 -3.7091574116836673e-05 0.0000000000000000e+00  2.0870483761755620e-01 -6.5306825693923917e-02 0.0000000000000000e+00  1.8563275147792871e-01 3.7280593520613983e-02 0.0000000000000000e+00  1.8708266623088793e-01 6.9673522840686730e-02 0.0000000000000000e+00  1.8199424657545862e-01 -1.8189003681435983e-05 0.0000000000000000e+00  1.8436899345867494e-01 -3.1103523589060262e-03 0.0000000000000000e+00  1.8233286885400976e-01 -4.2635455630764577e-04 0.0000000000000000e+00  1.3763055941901434e-01 -2.2741057935564506e-02 0.0000000000000000e+00  1.8197473018876181e-01 6.1100856401253877e-06 0.0000000000000000e+00  1.8200009544302692e-01 -1.9497227567634661e-05 0.0000000000000000e+00  1.8188582595549477e-01 -3.2534653174780105e-06 0.0000000000000000e+00  7.5236955467769748e-02 3.3857201233002413e-06 0.0000000000000000e+00  2.7319268288744342e-01 -2.1373523923499984e-07 0.0000000000000000e+00  1.8199888255503513e-01 -2.0344197831374543e-05 0.0000000000000000e+00  2.7543471231677097e-01 6.6513396976748337e-02 0.0000000000000000e+00  1.8132417835795964e-01 -4.7101650416328030e-05 0.0000000000000000e+00  1.8201565482003459e-01 -1.1947526550180327e-04 0.0000000000000000e+00  1.8199438693161321e-01 -5.0869900650681493e-05 0.0000000000000000e+00  1.8934742643396452e-01 -4.3556793670127139e-03 0.0000000000000000e+00  1.8179266063217400e-01 4.1422416805369405e-06 0.0000000000000000e+00  1.8187315401604806e-01 -1.6757906399891208e-05 0.0000000000000000e+00  1.8103688304839366e-01 -6.3666886920349321e-04 0.0000000000000000e+00  2.0181388155417235e-01 -1.6427424708065495e-02 0.0000000000000000e+00  1.7282078816529081e-01 -6.7838130385447590e-03 0.0000000000000000e+00  1.8187688040928873e-01 -5.5806204828557850e-05 0.0000000000000000e+00  1.8311201269344501e-01 -9.7819198273233626e-04 0.0000000000000000e+00  1.8173935239773809e-01 -5.9011538164646196e-05 0.0000000000000000e+00  1.8007380011309770e-01 -8.7127150510160780e-05 0.0000000000000000e+00  1.7790232554237287e-01 -1.0975449695237399e-03 0.0000000000000000e+00  2.9461876053933866e-01 -4.8567417341812247e-02 0.0000000000000000e+00  -1.0321034073378954e-06 1.3711918279106860e-07 0.0000000000000000e+00  1.8201002499099989e-01 -7.8209639617547802e-06 0.0000000000000000e+00  -3.4186496305879639e-07 -3.3681594490246794e-07 0.0000000000000000e+00  1.8193738451646668e-01 -1.1602059558898054e-05 0.0000000000000000e+00  1.8421715067944139e-01 -7.7447084666265363e-03 0.0000000000000000e+00  1.8205020358004212e-01 -2.7246325008198791e-04 0.0000000000000000e+00  1.1940068817293779e-01 1.2834516175332200e-01 0.0000000000000000e+00  2.4217297930540432e-01 -8.8548106373964649e-03 0.0000000000000000e+00  2.0212372371328957e-01 5.1869161703799689e-02 0.0000000000000000e+00  1.7397149409926516e-01 8.7899214499929434e-02 0.0000000000000000e+00  3.9117942657069554e-01 -5.7234008354219150e-02 0.0000000000000000e+00  1.6570298035935624e-01 -1.6219331913828312e-02 0.0000000000000000e+00  4.3474081298454975e-06 5.6896632586525832e-08 0.0000000000000000e+00  1.7860004953961880e-01 6.3220641261921542e-06 0.0000000000000000e+00  -2.4684280367572771e-06 -5.6248953094918272e-08 0.0000000000000000e+00  2.1790739950677297e-07 -4.2284471999227574e-08 0.0000000000000000e+00  -4.9104927599611663e-07 -2.0389886517748855e-08 0.0000000000000000e+00  1.8199367086153190e-01 -5.0405546669608679e-05 0.0000000000000000e+00  -3.8356464785085565e-06 7.6431276859128472e-08 0.0000000000000000e+00  3.2497406564368464e-01 3.9811910097720088e-02 0.0000000000000000e+00  3.7203655980990563e-01 4.9379426090571332e-02 0.0000000000000000e+00  1.8019220111969411e-01 -2.6215822547110857e-05 0.0000000000000000e+00  3.2235197730945225e-01 5.3884550051080449e-02 0.0000000000000000e+00  -1.7401577288429338e-06 -1.6465507769193165e-08 0.0000000000000000e+00  -4.0705325979863282e-06 8.4136218639726073e-07 0.0000000000000000e+00  -9.9816674556673534e-07 4.2967687353150579e-09 0.0000000000000000e+00  1.8075030503491432e-01 -8.5268710077004107e-06 0.0000000000000000e+00  1.7545067091041339e-01 -3.5931444217664213e-02 0.0000000000000000e+00  -3.3515421655897471e-06 -1.0180921184188323e-07 0.0000000000000000e+00  2.2854187759372513e-01 -1.4624815180564910e-01 0.0000000000000000e+00  1.5292464091241534e-01 8.7459892437022915e-02 0.0000000000000000e+00  2.3650143804723434e-01 -2.6230376167589161e-02 0.0000000000000000e+00  -8.2404448792468881e-07 -2.5737394368831543e-09 0.0000000000000000e+00  1.5278098522086833e-01 1.9384952530796883e-02 0.0000000000000000e+00  1.8189108916314611e-01 -1.8793006545978234e-04 0.0000000000000000e+00  1.7965160381836429e-01 -1.9134918315869549e-04 0.0000000000000000e+00  -2.5941190023742585e-07 4.6942754366371634e-09 0.0000000000000000e+00  1.7485140476628075e-01 -2.4862895550347777e-03 0.0000000000000000e+00  1.8197963059677411e-01 -2.2434216437089492e-05 0.0000000000000000e+00  1.8197530916202068e-01 -2.9694118736989478e-03 0.0000000000000000e+00  1.8176012552424625e-01 -7.7229456250923036e-04 0.0000000000000000e+00  1.8019598990094771e-01 1.1507387426459546e-05 0.0000000000000000e+00  1.8091425701651426e-01 -1.5179380435154067e-03 0.0000000000000000e+00  1.7649852788449832e-01 -8.6106820469577065e-03 0.0000000000000000e+00  1.5380072930628483e-01 -7.4889618676191776e-03 0.0000000000000000e+00  1.7883210913765912e-01 -8.8989797857315159e-03 0.0000000000000000e+00  1.4099201139475723e-01 -8.5886665015168756e-02 0.0000000000000000e+00  2.2321907605008784e-01 1.6601243168357094e-02 0.0000000000000000e+00  1.1077043215185040e-01 7.3485690489051930e-02 0.0000000000000000e+00  1.6108480120978827e-01 -3.0215246712074394e-02 0.0000000000000000e+00  -1.8727441428644421e-06 -3.1169823620862387e-07 0.0000000000000000e+00  -9.1533687279411422e-07 -1.8685476085531376e-08 0.0000000000000000e+00  -9.9253872770578136e-06 9.9000085568184445e-07 0.0000000000000000e+00  1.8968352892764109e-01 -1.2125825494289276e-02 0.0000000000000000e+00  8.2870706315167172e-02 7.4727328309891095e-02 0.0000000000000000e+00  -4.3444645616664508e-06 -4.9319877910463304e-07 0.0000000000000000e+00  -1.2397790636602386e-06 8.7820238911253048e-09 0.0000000000000000e+00  1.7980800784935377e-01 -2.8619313260220747e-05 0.0000000000000000e+00  1.8197597187754927e-01 -3.7137277641944932e-07 0.0000000000000000e+00  -1.3725028101491576e-06 1.3737634684439465e-08 0.0000000000000000e+00  -1.8432853898973281e-06 2.8176258812713316e-08 0.0000000000000000e+00  -1.5785648029141652e-06 -4.1996279541667810e-09 0.0000000000000000e+00  -4.0707637924659078e-07 9.2574054881717110e-09 0.0000000000000000e+00  -4.2218539117241510e-07 -1.3864978563786131e-08 0.0000000000000000e+00  -3.0506996996947154e-06 9.2082148139788651e-08 0.0000000000000000e+00  -2.6789560358194984e-06 -6.7751525599785049e-07 0.0000000000000000e+00  -1.0317200396064504e-06 -1.8606132723759283e-08 0.0000000000000000e+00  -4.2814112212640168e-07 1.1599891247973484e-08 0.0000000000000000e+00  5.2602820430067293e-07 2.3928711847078617e-08 0.0000000000000000e+00  -1.7996395269941561e-07 -8.1271276914835849e-09 0.0000000000000000e+00  -1.7941296082198927e-06 3.2513680736635715e-08 0.0000000000000000e+00  -6.8696154427185924e-07 -8.7888699028360020e-09 0.0000000000000000e+00  1.6150229203345731e-01 -5.7413091448181323e-03 0.0000000000000000e+00  1.7662192157220905e-01 -1.2176307090443961e-04 0.0000000000000000e+00  1.7923548899119957e-01 -1.0826480834146542e-03 0.0000000000000000e+00  1.7823028998011137e-01 1.0526324025954450e-05 0.0000000000000000e+00  2.4534389108660482e-01 1.1632557437415290e-01 0.0000000000000000e+00  2.5410732857199669e-01 3.5331581486823756e-02 0.0000000000000000e+00  3.1459355656015436e-01 3.4950361224975128e-02 0.0000000000000000e+00  1.7971033000431705e-01 -3.5040103874401326e-05 0.0000000000000000e+00  1.8199032542535387e-01 -2.7865427456821809e-05 0.0000000000000000e+00  1.8224646938544814e-01 -8.2943520390067814e-04 0.0000000000000000e+00  1.7445966000405427e-01 -4.7970150789793442e-05 0.0000000000000000e+00  1.8200899628607856e-01 -1.9707906668341746e-05 0.0000000000000000e+00  1.8199815004313283e-01 -1.8546291428699622e-05 0.0000000000000000e+00  1.8199765894740813e-01 -1.6545773655962466e-05 0.0000000000000000e+00  1.8200463895026092e-01 -1.3919449174252251e-05 0.0000000000000000e+00  1.7587076831997217e-01 -6.4953045018832154e-05 0.0000000000000000e+00  1.7807792054406818e-01 -4.3007900579219736e-05 0.0000000000000000e+00  2.1572357217797905e-01 1.2620281902395430e-01 0.0000000000000000e+00  6.4510234670200353e-02 -3.5716156118739250e-03 0.0000000000000000e+00  1.7523077237664084e-01 -1.8899152161755623e-04 0.0000000000000000e+00  2.1877249021348644e-01 -5.1330905140542825e-03 0.0000000000000000e+00  1.8170554609703948e-01 -4.5609526536156598e-05 0.0000000000000000e+00  1.8199516149915468e-01 -1.9653740082867799e-05 0.0000000000000000e+00  1.8202913404097709e-01 -4.9502432383157456e-04 0.0000000000000000e+00  1.8200551467736381e-01 -1.2856776989905445e-05 0.0000000000000000e+00  1.7842194850845614e-01 -2.6974078979564065e-05 0.0000000000000000e+00  1.8197941776747389e-01 -7.6121438273700642e-05 0.0000000000000000e+00  1.8284814491331280e-01 -1.9049902456417498e-03 0.0000000000000000e+00  1.7688075308572679e-01 2.6997249372831740e-05 0.0000000000000000e+00  1.8200432477287060e-01 -8.7029764654578628e-06 0.0000000000000000e+00  1.7622186515548094e-01 3.3361427241473267e-05 0.0000000000000000e+00  1.8561728586142223e-01 7.7175038615796387e-02 0.0000000000000000e+00  1.4031542608202838e-01 4.6761272865439518e-02 0.0000000000000000e+00  1.9995991563375232e-01 9.7842744030811075e-03 0.0000000000000000e+00  1.7325867785901877e-01 -4.6629364209696864e-04 0.0000000000000000e+00  1.8284042938542427e-01 -4.7471958254111423e-03 0.0000000000000000e+00  1.8263653686648185e-01 -6.8468351977657514e-04 0.0000000000000000e+00  3.3010615006113375e-01 1.7281215813175335e-02 0.0000000000000000e+00  1.8206285600030370e-01 -1.5785440591104159e-04 0.0000000000000000e+00  1.8218342271777951e-01 -2.3066482053147152e-04 0.0000000000000000e+00  3.2278643523701417e-01 1.2612715522013968e-01 0.0000000000000000e+00  3.0257830434443472e-01 2.7581538100730652e-02 0.0000000000000000e+00  2.5089395501188810e-01 4.9346826790655524e-02 0.0000000000000000e+00  1.8199737910206285e-01 2.4145971048073185e-07 0.0000000000000000e+00  1.8196715175308725e-01 -2.5675079091179251e-05 0.0000000000000000e+00  1.8200011015557174e-01 -2.6809660093577604e-05 0.0000000000000000e+00  1.9761364263645489e-01 -3.4359693347340722e-02 0.0000000000000000e+00  1.8282876020999153e-01 2.1127427753002775e-02 0.0000000000000000e+00  1.7293830331215335e-01 6.1432081003806626e-05 0.0000000000000000e+00  2.4379329917722786e-01 2.1155735460238172e-02 0.0000000000000000e+00  2.2271310142846296e-01 6.4514580755387241e-02 0.0000000000000000e+00  1.8191442778324493e-01 -9.9336978657956417e-05 0.0000000000000000e+00  1.7596718007320783e-01 -3.5474066799905606e-05 0.0000000000000000e+00  1.7973186669387062e-01 -7.5461117256491860e-04 0.0000000000000000e+00  4.2929040102218730e-01 -4.2666597783014244e-04 0.0000000000000000e+00  1.8006736717310043e-01 -2.3927776292692821e-03 0.0000000000000000e+00  1.9489226561107381e-01 -7.4224000955589288e-03 0.0000000000000000e+00  1.8198713830228050e-01 -2.5064501889429064e-05 0.0000000000000000e+00  1.8146813734163994e-01 -4.1709609288889827e-03 0.0000000000000000e+00  1.8199159647945817e-01 -3.2453831349430143e-05 0.0000000000000000e+00  1.8201552056087184e-01 -8.2979361097816883e-05 0.0000000000000000e+00  1.8152843475818606e-01 -4.7862346087775557e-04 0.0000000000000000e+00  1.5378541072125659e-01 -2.3145037070521606e-03 0.0000000000000000e+00  1.6221242904723307e-01 -7.5691420771016246e-05 0.0000000000000000e+00  1.6138106847249706e-01 -1.5294437102330137e-04 0.0000000000000000e+00  1.7445651905678064e-01 -1.2564493821570667e-02 0.0000000000000000e+00  1.0585302979756044e-01 3.5067239485274439e-02 0.0000000000000000e+00  1.8193491616698992e-01 -4.6512813555681949e-06 0.0000000000000000e+00  1.6748868195087269e-01 -2.9591421122224960e-05 0.0000000000000000e+00  3.3338225088339146e-01 -1.0729237830784051e-01 0.0000000000000000e+00  1.8198031486770413e-01 -1.0016589598840572e-05 0.0000000000000000e+00  1.8199263568268773e-01 -1.0826230174270571e-05 0.0000000000000000e+00  3.5787398718524460e-02 2.9505466050594049e-06 0.0000000000000000e+00  1.7693131835949494e-01 -5.5008461441173771e-03 0.0000000000000000e+00  1.5581068080697918e-01 6.5294233819659583e-02 0.0000000000000000e+00  1.8201087520098799e-01 -6.8855322111930003e-06 0.0000000000000000e+00  1.8195281300376462e-01 -1.5750248611999694e-05 0.0000000000000000e+00  1.6014168126204723e-01 -9.7740957798043157e-04 0.0000000000000000e+00  1.8639015407445936e-01 -3.0927249664967800e-03 0.0000000000000000e+00  3.6861377167787851e-01 4.6219995469281294e-02 0.0000000000000000e+00  1.7197512391099912e-01 -3.2745713363832678e-05 0.0000000000000000e+00  1.6113611926315752e-01 -3.4011088987658601e-05 0.0000000000000000e+00  1.6903688689639243e-01 -4.5598264481871401e-05 0.0000000000000000e+00  5.7874038590607496e-02 -8.2931728490139064e-02 0.0000000000000000e+00  3.3356394836600439e-01 -1.4300423593849709e-06 0.0000000000000000e+00  1.6662060477789054e-01 -3.2130734451677731e-05 0.0000000000000000e+00  3.7117197936237772e-01 -1.5361653662640341e-02 0.0000000000000000e+00  1.7111237531885959e-01 5.5232263100372098e-05 0.0000000000000000e+00  1.8382027385653119e-01 -1.7070536421427880e-03 0.0000000000000000e+00  1.1852812210531577e-01 3.2668405559805644e-06 0.0000000000000000e+00  1.8200398431043049e-01 -2.1143054052357720e-05 0.0000000000000000e+00  1.6904389889235694e-01 -1.7066166222636745e-04 0.0000000000000000e+00  2.1733305394580615e-01 1.0778195081475086e-06 0.0000000000000000e+00  1.6891608012117681e-01 -1.1575402688164777e-05 0.0000000000000000e+00  1.8205281440883819e-01 -8.3891257268185353e-05 0.0000000000000000e+00  1.8199202776912443e-01 -1.6066834405944582e-05 0.0000000000000000e+00  1.6590559027866714e-01 -9.8642147505314707e-05 0.0000000000000000e+00  1.4737328700679889e-01 -6.8512841556614065e-05 0.0000000000000000e+00  1.8165041568808973e-01 -2.1676763514333997e-04 0.0000000000000000e+00  1.4497217731577403e-01 -4.5839718578212448e-04 0.0000000000000000e+00  2.5787400001564770e-01 -1.9425000662927801e-02 0.0000000000000000e+00  2.1648579303808685e-01 -1.2535022213968914e-02 0.0000000000000000e+00  2.5160777250525440e-01 -6.3648629326234149e-02 0.0000000000000000e+00  1.6219488829904799e-01 -8.1626595912757664e-05 0.0000000000000000e+00  1.8949566210209728e-01 -2.1199841432118623e-02 0.0000000000000000e+00  1.9909174381157851e-01 -7.9634177033037160e-03 0.0000000000000000e+00  1.8195282945926552e-01 -2.9215028467249203e-06 0.0000000000000000e+00  1.8148688418283246e-01 -1.1339146996075555e-03 0.0000000000000000e+00  1.4726024424695949e-01 7.9747375933232454e-05 0.0000000000000000e+00  1.6394710196501522e-01 -1.74371798389713