<?xml version="1.0"?>
<VTKFile type="UnstructuredGrid"  version="0.1"  >
<UnstructuredGrid>
<Piece  NumberOfPoints="1404" NumberOfCells="2604">
<Points>
<DataArray  type="Float64"  NumberOfComponents="3"  format="ascii">0 0.41 0  0 0 0  2.2 0 0  2.2 0.41 0  0.2353553390593274 0.2353553390593274 0  0.25 0.2 0  0.2353553390593274 0.1646446609406726 0  0.2 0.15 0  0.1646446609406726 0.1646446609406726 0  0.15 0.2 0  0.1646446609406726 0.2353553390593274 0  0.2 0.25 0  0.6923879532511287 0.188268343236509 0  0.7 0.15 0  0.6923879532511287 0.1117316567634909 0  0.6707106781186547 0.07928932188134523 0  0.6382683432365089 0.05761204674887133 0  0.6 0.04999999999999999 0  0.5617316567634909 0.05761204674887134 0  0.5292893218813453 0.07928932188134524 0  0.5076120467488713 0.111731656763491 0  0.5 0.15 0  0.5076120467488713 0.188268343236509 0  0.5292893218813453 0.2207106781186547 0  0.561731656763491 0.2423879532511287 0  0.6 0.25 0  0.6382683432365089 0.2423879532511287 0  0.6707106781186547 0.2207106781186547 0  1.1 0 0  0 0.205 0  1.1 0.41 0  0.55 0 0  0.55 0.41 0  0.275 0 0  0.8250000000000001 0 0  0.275 0.41 0  0.8250000000000001 0.41 0  0.6875 0 0  0.61875 0 0  1.65 0.41 0  1.65 0 0  1.375 0 0  1.375 0.41 0  1.925 0 0  1.925 0.41 0  1.5125 0.205 0  1.7875 0.205 0  0.9625000000000001 0.205 0  1.2375 0.205 0  2.2 0.205 0  1.99375 0.2152743902439024 0  0.4125 0.41 0  2.0625 0 0  2.0625 0.41 0  2.2 0.3075 0  1.7875 0.41 0  1.375 0.1486128048780488 0  1.5125 0 0  1.7875 0 0  1.5125 0.41 0  0.9625000000000001 0.41 0  0.4125 0 0  0.1375 0 0  0.1375 0.41 0  0.6875 0.41 0  0.9625000000000001 0 0  1.2375 0 0  1.1 0.1486128048780488 0  1.2375 0.41 0  1.65 0.1486128048780487 0  0.823495464168302 0.2603780552348366 0  0.3738707794507017 0.2720196349488618 0  0.3662291281331582 0.1311456406657909 0  1.676715909090909 0.2793064024390244 0  1.126715909090909 0.2793064024390244 0  1.348284090909091 0.2793064024390244 0  0.8287581077665108 0.1302150898054257 0  1.894702181800738 0.1282910975492754 0  2.092797818199262 0.1282910975492754 0  1.85625 0.3075 0  0 0.3075 0  0 0.1025 0  2.099172119769978 0.25625 0  0.4752414543992246 0.3180372603390748 0  1.99375 0.08395950269330846 0  1.459960956013612 0.3075 0  1.569025960719943 0.2986889805672169 0  1.03125 0.3278689922742084 0  1.959375 0.3126371951219512 0  1.749222215368287 0.1025 0  1.275777784631713 0.1025 0  0.9228016959331474 0.3075 0  1.000777784631713 0.1025 0  2.2 0.1025 0  1.225938124459196 0.3075 0  1.550777784631713 0.1025 0  1.44375 0.07430640243902442 0  1.16875 0.07430640243902439 0  0.7562500000000001 0.3358727844323386 0  0.89375 0 0  1.899250267340833 0.2229966846119207 0  0.61875 0.41 0  1.766482954545455 0.2934032012195123 0  1.046078563095834 0.2389031808701145 0  1.421109702350723 0.2261157654379721 0  0.07567171807980319 0.25625 0  0.2511897295290552 0.3235829392832554 0  0.07655002503762308 0.1488653460959645 0  0.1377245246847496 0.3206030474919778 0  0.6694099692696568 0.3242771941727899 0  0.9168971191497528 0.1295727156104653 0  0.7562500000000001 0 0  2.118919042110979 0.3422084711244843 0  2.13125 0 0  0.06875000000000001 0 0  1.30625 0.41 0  1.597888256393107 0.2173787389261347 0  0.34375 0.41 0  0.2493272016354703 0.08091360081773515 0  0.5588896233436766 0.3264056208677571 0  1.829299675393195 0.07400700849299596 0  0.1334079128307869 0.08523463035786674 0  1.71875 0.41 0  0.06875000000000001 0.41 0  1.16875 0.41 0  2.038220665644273 0.332420740103091 0  0.8810647413215221 0.2027360103977071 0  0.34375 0 0  0.7453891198966415 0.2471459041008237 0  0.42112093004955 0.1988123139090554 0  0.8314023090855964 0.3351170841770613 0  0.89375 0.41 0  0.7906250000000001 0.06615386481594063 0  1.452769549894695 0.1548122580621249 0  1.369219062229598 0.07430640243902442 0  1.30625 0 0  1.07420695807087 0.07430640243902439 0  1.720943423819132 0.1714577452753128 0  1.157188124459196 0.205 0  1.304056576180868 0.1714577452753128 0  1.67579304192913 0.07430640243902437 0  1.209670467133757 0.136210026696477 0  0.4312800784902823 0.08036147352247747 0  0.8723959680194693 0.07066860609690805 0  1.025335513626278 0.1700681449722324 0  0.7945632284247136 0.1940204203251442 0  0.378125 0.3452261501101892 0  0.3307109909790086 0.2037165635083759 0  0.3009701032039409 0.2702970083403109 0  0.20625 0.41 0  1.58125 0 0  0.4812500000000001 0 0  0.9838963872396855 0.2722244191167347 0  0.06772484939107212 0.3260067317374387 0  0.20625 0 0  1.58125 0.41 0  1.631724228912893 0.3381867502687533 0  1.825608881788174 0.14499488549201 0  1.85625 0 0  1.44375 0 0  1.44375 0.41 0  1.85625 0.41 0  2.13125 0.41 0  0.7562500000000001 0.41 0  0.4812500000000001 0.41 0  1.16875 0 0  1.03125 0.41 0  1.03125 0 0  1.71875 0 0  1.99375 0 0  1.99375 0.41 0  0.9408708167433545 0.0651989315768642 0  1.340625 0.3489494290853124 0  1.134375 0.3489494290853123 0  1.700180620188976 0.3438659752031281 0  0.29668452290037 0.1318471691375986 0  0.3175441051360096 0.06496934809856265 0  0.06509151636162461 0.08140814015999148 0  2.135782184673599 0.07126652247502523 0  1.668441847249787 0.2129203728327609 0  1.295782514339747 0.2378437748815763 0  1.409375 0.3520314716057996 0  2.129248544730567 0.1906135162504124 0  2.060771381434487 0.1989445750470348 0  2.013252586573865 0.1496169464686054 0  1.942766402200229 0.1734448904596831 0  1.895522487186454 0.06076163953489683 0  2.069553871656643 0.06605731020975725 0  0.4670911801404742 0.2498408582391372 0  0.7622743084658112 0.1264100838268133 0  1.274680914880868 0.3520219391081363 0  0.3148669572599245 0.3331753056385887 0  1.614713220494657 0.09473434380863296 0  1.72990325744076 0.2380068107952482 0  1.356580098625191 0.2120393231351682 0  2.034370752044885 0.2668681600792073 0  1.51768709249349 0.3426260931494756 0  1.561883724969884 0.1650446847858835 0  1.197344062229598 0.2523725417393646 0  1.804085235518364 0.3468178408964637 0  1.817887819205233 0.2589243285818559 0  1.905897727272727 0.3485060975609756 0  0.7296439733931823 0.06337466644369745 0  0.4250935971865949 0.1394919578475796 0  0.3773030136511669 0.05130372097998036 0  1.192836486056382 0.3562350748565544 0  1.1029124365364 0.226143510831178 0  1.28257088594801 0.2944411014911587 0  0.1905185804731426 0.06029880676029167 0  1.474860187679412 0.2504218616229368 0  1.406767003493824 0.2829282258560709 0  0.5209826960981064 0.2830664557824064 0  0.5131119502780163 0.3617405848213254 0  0.1948220106098172 0.3081993407644811 0  1.845656689180403 0.1998310418452388 0  2.144958525570388 0.2909790873294231 0  2.2 0.15375 0  0.8833025251326762 0.2625402923007629 0  0.171875 0.3653875762360952 0  1.57794966442982 0.3540357145964566 0  0.446875 0.366068291212731 0  0.4272051715206439 0.2891929346190664 0  1.508991196088596 0.1421783375065625 0  1.50436820029908 0.06143401634903343 0  1.223857000523521 0.08235548624535324 0  0.6137904613287555 0.3066826366281556 0  1.153316824384777 0.1289850171317838 0  0.9751573703656133 0.327632618473408 0  2.148922302309752 0.1258841779285271 0  0.9281250000000001 0.3643758685795699 0  1.621993280276081 0.2841214267927899 0  1.550118654119087 0.2461998729100966 0  1.327182649291491 0.1216967252533594 0  0.9939955742738924 0.04663549843168518 0  1.753125 0.04556020050186112 0  1.271875 0.04556020050186116 0  0.9734326767716519 0.1506854560854393 0  0.103125 0.3675775577080512 0  1.94956388244759 0.1180512551534177 0  1.949997712993411 0.04965831614304109 0  0.717433898748555 0.295596016333797 0  1.771961817615021 0.1530278789497521 0  1.909246823951428 0.2812757146784527 0  0 0.35875 0  1.050632804931928 0.1226269704412814 0  0.05695108326502596 0.2024009637347154 0  1.948575539857022 0.2445328248721197 0  1.697271520964565 0.1233917627620729 0  1.065625 0.3689344961371042 0  1.085849084308977 0.3170853572226867 0  0.1015495998772944 0.04226029099983852 0  1.577403511714593 0.05463601888079143 0  1.751571320346033 0.3651102912045228 0  2.2 0.35875 0  0.7441773632462837 0.1786786606458751 0  0 0.05125 0  1.466879772203159 0.3611261772912453 0  0.6282230348858767 0.3577675483994025 0  1.990280163552011 0.3564754268533217 0  1.17471064520912 0.2990917256188288 0  0 0.25625 0  2.2 0.25625 0  2.2 0.05125 0  0 0.15375 0  1.853978576207987 0.35875 0  1.515638456102889 0.2882700110184686 0  2.150453692751374 0.2387066338105111 0  1.323782677156475 0.04897634338873398 0  1.409375 0.03715320121951221 0  1.406484531114799 0.1087852750766809 0  1.134375 0.03715320121951219 0  0.721875 0.3729363922161693 0  0.7941695928236929 0.3696489254637395 0  0.7934827162619036 0.3013409431456604 0  1.627401732573545 0.04552157221025036 0  0.9352049974617431 0.2507047965699472 0  0.8763260682738339 0.3611103317460093 0  2.045405893604797 0.1105340662939892 0  1.255408269734577 0.1577307500159216 0  2.028125 0.03707597992059326 0  1.003030137506755 0.3689344961371042 0  1.248258025468107 0.2565907092181813 0  1.203125 0.03661323374043041 0  0.4800125512335631 0.0549472816999725 0  2.072662025974815 0.2975086504196739 0  0.240625 0.3729825336867542 0  1.113252391110535 0.10238286244357 0  1.071052763974265 0.1885202618768825 0  0.8738809401657862 0.3106483608284829 0  0.6786819423003397 0.2677558482644021 0  1.887722846421017 0.1760882698830035 0  1.472640588990488 0.1118278026240017 0  0.5843750000000001 0.41 0  1.865937103925594 0.2604137786483804 0  1.463913572748262 0.2030442564990043 0  1.376426316059077 0.3186741374914345 0  0.1038643885363755 0.2162701735320032 0  0.1769473813227781 0.1070849728467114 0  0.458787839809176 0.171541653775316 0  0.240625 0 0  0.04179569703428024 0.2877217852556549 0  0.1258346557601885 0.2699740073054968 0  1.722140693354707 0.282908100935778 0  0.41206179117512 0.2448172567039922 0  0.3702471778075604 0.2265217604228704 0  0.3714881805374215 0.1786967818665642 0  1.77397096061971 0.2481483237422926 0  2.105123889160691 0.03743885948498647 0  1.001138337938679 0.229719337663998 0  1.051242910646791 0.2854826559431138 0  1.395420985247586 0.18
[...]
<PointData  Vectors="f_37"> 
<DataArray  type="Float64"  Name="f_37"  NumberOfComponents="3" format="ascii">2.4949246543665569e-07 4.5771641723488496e-08 0.0000000000000000e+00  -4.4452590910750695e-06 -3.5391392788535497e-07 0.0000000000000000e+00  -6.4789287606058548e-07 5.7941416106774609e-09 0.0000000000000000e+00  -7.7908298521410493e-07 1.5072753044875362e-09 0.0000000000000000e+00  -5.5335890182592892e-08 3.0547540538916681e-07 0.0000000000000000e+00  1.2000457224756047e-07 -7.0209779911689524e-08 0.0000000000000000e+00  1.2771029803991195e-07 1.6397016362358334e-07 0.0000000000000000e+00  -9.1038994390650858e-07 -9.9676927452575355e-08 0.0000000000000000e+00  -8.5331364364842065e-07 -1.3351777237640838e-07 0.0000000000000000e+00  1.2761593510529302e-07 -4.5908873604655472e-07 0.0000000000000000e+00  -9.3887895057774042e-07 -5.2538828200104887e-07 0.0000000000000000e+00  -1.0716478240404504e-06 -2.5313949177671461e-07 0.0000000000000000e+00  4.2196811704663140e-07 -9.1800716259099138e-08 0.0000000000000000e+00  -3.5159101458534907e-07 -5.2709859425141747e-07 0.0000000000000000e+00  -4.0259634370944874e-07 -1.2400204743253543e-07 0.0000000000000000e+00  -9.1884481439217279e-07 -1.9678865659867307e-07 0.0000000000000000e+00  2.3757927170569591e-06 4.3219794770559685e-07 0.0000000000000000e+00  3.4752317649863557e-01 9.6683567440047274e-02 0.0000000000000000e+00  1.6972755380972153e-06 -3.0466742168101889e-08 0.0000000000000000e+00  -1.0960467605102204e-06 3.9617328025938448e-07 0.0000000000000000e+00  -1.2747883111169688e-06 -4.3519480452765592e-07 0.0000000000000000e+00  -8.1338705142307253e-08 -6.2608343180060713e-07 0.0000000000000000e+00  4.0569997869891877e-07 2.3787651325547133e-08 0.0000000000000000e+00  -4.9303879378202464e-07 -1.7788932829234480e-06 0.0000000000000000e+00  -3.1180115980992269e-06 -1.5695366056214220e-06 0.0000000000000000e+00  -4.5303918007914021e-06 -4.1875839047175030e-07 0.0000000000000000e+00  -4.4736590242924683e-06 -1.3515247256555687e-07 0.0000000000000000e+00  -3.0823009133489424e-07 8.4405394237596296e-08 0.0000000000000000e+00  -3.0112548335342140e-07 1.0070013594258887e-07 0.0000000000000000e+00  1.6583343051557325e-01 -4.3392166080810172e-07 0.0000000000000000e+00  -9.2352521247826964e-07 -4.8885553225008477e-08 0.0000000000000000e+00  3.0850116685739640e-06 1.2478490772663182e-07 0.0000000000000000e+00  -5.5451878519877736e-07 -8.3498674785836915e-08 0.0000000000000000e+00  4.2205793377104888e-07 4.4539060261852829e-08 0.0000000000000000e+00  -1.7338852614929715e-07 -5.0863231306236074e-08 0.0000000000000000e+00  -1.0262723686488371e-06 3.5524083108392341e-09 0.0000000000000000e+00  -1.5004382490766963e-06 6.8712618231476163e-08 0.0000000000000000e+00  -2.5891541332317724e-06 -4.7688333319516935e-07 0.0000000000000000e+00  -8.7635051769376106e-06 -1.1506484470355323e-06 0.0000000000000000e+00  -1.2221063890858141e-06 -1.8500673669886833e-07 0.0000000000000000e+00  -1.5159218723982824e-06 6.2941058681803997e-08 0.0000000000000000e+00  2.7720345370558882e-07 -1.9035695933998627e-07 0.0000000000000000e+00  -1.1227277091111924e-07 4.9901968229039696e-08 0.0000000000000000e+00  -4.4377854574732095e-07 -8.9599021988230551e-09 0.0000000000000000e+00  -9.5922479794013893e-08 -7.3031123904980112e-09 0.0000000000000000e+00  2.6756218235458346e-01 -2.9375685836773056e-02 0.0000000000000000e+00  2.3323366082712019e-01 1.7303160442688533e-02 0.0000000000000000e+00  1.5206788212980912e-01 -1.3089400532495042e-02 0.0000000000000000e+00  2.7434834549916809e-01 -5.0599984138576207e-02 0.0000000000000000e+00  2.3281571843897125e-01 -4.0327583528744813e-04 0.0000000000000000e+00  2.3247053169090320e-01 -3.3305680320453259e-04 0.0000000000000000e+00  2.7285348052824096e-07 4.7441051691334492e-09 0.0000000000000000e+00  1.1294144583114879e-07 2.2623895613702096e-09 0.0000000000000000e+00  -4.6861786557849455e-07 6.4748206666626956e-09 0.0000000000000000e+00  1.8484661679503100e-01 -2.4121316108464868e-04 0.0000000000000000e+00  -1.2967389577750355e-06 -1.2185324684012811e-07 0.0000000000000000e+00  2.3052163400907671e-01 -6.9605475401799899e-02 0.0000000000000000e+00  -2.8466257170348800e-06 4.5096553063529970e-07 0.0000000000000000e+00  -6.4808921454560805e-07 -9.1005534915932518e-08 0.0000000000000000e+00  1.0038192620405850e-06 2.9410095961703645e-07 0.0000000000000000e+00  -2.6296084961162944e-07 -9.4198804991632531e-09 0.0000000000000000e+00  -3.4832862295034717e-07 -8.7302708677035073e-08 0.0000000000000000e+00  -8.5291778855066963e-07 -6.9322307554083140e-08 0.0000000000000000e+00  -3.7977889425053296e-07 -6.0479655918324536e-08 0.0000000000000000e+00  -2.3966802423402878e-06 5.3807081195407374e-08 0.0000000000000000e+00  -3.9400914871439447e-07 5.4905453782541589e-08 0.0000000000000000e+00  1.6493705428906254e-06 -3.5861093574840079e-07 0.0000000000000000e+00  1.1925297937482635e-01 1.0708803030656190e-03 0.0000000000000000e+00  -2.6500931469174869e-07 -7.2578651209815192e-08 0.0000000000000000e+00  2.4556786904792752e-01 1.7189255205728796e-02 0.0000000000000000e+00  2.6522089277876604e-01 -3.7977588822325721e-02 0.0000000000000000e+00  1.0611548948008681e-01 5.0182920444637883e-03 0.0000000000000000e+00  3.0488183280822279e-01 1.0644896958112837e-01 0.0000000000000000e+00  1.8362452836489526e-01 2.5618302296692708e-02 0.0000000000000000e+00  3.4706302096947428e-01 -3.9865973535674962e-02 0.0000000000000000e+00  2.6087824272568200e-01 -5.3030094254866315e-02 0.0000000000000000e+00  6.6434571496430658e-02 4.4570666052860697e-02 0.0000000000000000e+00  2.0738979124335305e-01 2.4225884447721785e-03 0.0000000000000000e+00  2.0652433496789496e-01 -6.0827205953715502e-04 0.0000000000000000e+00  1.8323581800074304e-01 3.5350269954297032e-03 0.0000000000000000e+00  7.5234906027858386e-02 4.2966870776733317e-08 0.0000000000000000e+00  2.7319253899020024e-01 1.8010806043385437e-08 0.0000000000000000e+00  2.2235195724606929e-01 -6.8833863942954526e-04 0.0000000000000000e+00  2.4042178327060765e-01 7.2457821982843312e-02 0.0000000000000000e+00  1.6117559005389184e-01 -3.1489492775745167e-04 0.0000000000000000e+00  1.4950371796375878e-01 -1.6694098425573033e-02 0.0000000000000000e+00  1.4791238582952648e-01 1.1005069791164879e-02 0.0000000000000000e+00  3.2337170092759232e-01 -2.3827449224399309e-02 0.0000000000000000e+00  1.8020451032518547e-01 -9.2179564586075170e-05 0.0000000000000000e+00  1.9704623469121038e-01 1.1433164620566177e-02 0.0000000000000000e+00  9.4752102944052993e-02 -2.1074569470957052e-02 0.0000000000000000e+00  3.9151623763187138e-01 -3.7600468598995136e-02 0.0000000000000000e+00  6.0239566600171990e-02 8.2434291502764944e-03 0.0000000000000000e+00  1.8407974865156418e-01 -2.3347095113430004e-04 0.0000000000000000e+00  2.8241771889143141e-01 -3.7786083519267176e-02 0.0000000000000000e+00  2.1358686827527359e-01 -1.5543538455973853e-02 0.0000000000000000e+00  1.2967942155487666e-01 -3.3045235878961902e-02 0.0000000000000000e+00  2.7085613549445109e-02 7.1475027350884554e-03 0.0000000000000000e+00  4.2736496203828866e-01 -3.5719083201757845e-02 0.0000000000000000e+00  -2.8469242543584265e-07 -2.4953920454792673e-08 0.0000000000000000e+00  2.3119926493313844e-01 3.4118206845024780e-03 0.0000000000000000e+00  -9.6712631116246650e-07 7.7024878906948981e-09 0.0000000000000000e+00  1.8699676185461522e-01 1.3871002964781991e-02 0.0000000000000000e+00  2.7693203366393387e-01 -3.2234788159088118e-02 0.0000000000000000e+00  2.8466420083003108e-01 -6.5180663555404805e-02 0.0000000000000000e+00  1.2570321126957629e-01 7.1228971947682101e-02 0.0000000000000000e+00  2.3113775906926567e-01 1.4771668435474967e-02 0.0000000000000000e+00  2.0877545010156531e-01 2.4430110166623810e-02 0.0000000000000000e+00  1.4759700275175261e-01 7.3996626060542067e-02 0.0000000000000000e+00  4.5680803838347567e-01 -1.3174335877885220e-02 0.0000000000000000e+00  7.4801536116457623e-02 1.8496021745005000e-02 0.0000000000000000e+00  -2.0562023738469997e-07 -1.1338205163650197e-07 0.0000000000000000e+00  1.4005466565125502e-01 -2.6134123497302189e-04 0.0000000000000000e+00  -1.6066354907445348e-06 5.6886129948970066e-09 0.0000000000000000e+00  -1.2963918638608574e-06 8.5316904753563164e-09 0.0000000000000000e+00  -2.4256677697852416e-07 -7.7147510092949842e-08 0.0000000000000000e+00  2.4050975126323873e-01 1.4319506703243435e-02 0.0000000000000000e+00  -1.8908945809403014e-06 -1.3714130937701665e-08 0.0000000000000000e+00  4.0379205847474303e-01 4.2373733623888570e-02 0.0000000000000000e+00  3.7425233514410516e-01 7.7601269487273736e-02 0.0000000000000000e+00  1.5073910067075955e-01 3.0944125131152690e-03 0.0000000000000000e+00  3.4356728363053607e-01 1.3159212503836530e-02 0.0000000000000000e+00  -1.6609213936107481e-06 -2.0052729950594758e-07 0.0000000000000000e+00  -8.5817582166074018e-08 -1.0721545639474011e-08 0.0000000000000000e+00  -5.9943215569651826e-07 -5.7504248478773187e-08 0.0000000000000000e+00  1.5506065808744254e-01 -4.1190060571048528e-04 0.0000000000000000e+00  9.8767567846189189e-02 -2.8343322408503585e-03 0.0000000000000000e+00  -2.8418047329003283e-07 -9.6946289055158193e-08 0.0000000000000000e+00  1.4568822828307934e-01 -2.3816728416633921e-02 0.0000000000000000e+00  1.5536750029813962e-01 1.4935975715438229e-01 0.0000000000000000e+00  3.9686050982870197e-01 -3.4687468150995653e-02 0.0000000000000000e+00  1.9192773301347982e-06 -7.9176570379515200e-08 0.0000000000000000e+00  1.1656363353511656e-01 4.6957385048622055e-02 0.0000000000000000e+00  2.5950295199304080e-01 -6.2915098400329092e-02 0.0000000000000000e+00  8.4908827718904636e-02 -3.1311808554348265e-02 0.0000000000000000e+00  1.8283039616486439e-06 -4.8054941241638857e-07 0.0000000000000000e+00  3.3980940156803675e-02 8.2071634733617126e-03 0.0000000000000000e+00  2.3960814890960030e-01 2.3601240720953747e-02 0.0000000000000000e+00  2.4129578862000811e-01 -2.9931528076606203e-02 0.0000000000000000e+00  2.4313420843258615e-01 -6.0525053930889743e-02 0.0000000000000000e+00  1.7226291959763382e-01 8.4197609817414747e-03 0.0000000000000000e+00  1.3664455381857471e-01 -1.2367967945211823e-02 0.0000000000000000e+00  2.3884819764866694e-01 2.5114109597303019e-02 0.0000000000000000e+00  6.7615766632222518e-02 1.7237456375908653e-02 0.0000000000000000e+00  1.2218425503857930e-01 -2.7818656605711860e-03 0.0000000000000000e+00  2.3141113723645457e-02 1.0489268736643709e-02 0.0000000000000000e+00  2.1175259152196768e-01 7.7273939702030532e-03 0.0000000000000000e+00  3.5752269960244443e-02 1.5519890878904312e-02 0.0000000000000000e+00  1.0150354780027204e-01 -2.0233047706489416e-02 0.0000000000000000e+00  -9.3701275730128908e-07 -1.1250118364614413e-07 0.0000000000000000e+00  -1.3114848458921436e-06 2.6380257932850818e-07 0.0000000000000000e+00  -6.1215419580576138e-07 3.8576747200765589e-07 0.0000000000000000e+00  3.4629317745972360e-01 -3.8122430314438793e-02 0.0000000000000000e+00  7.8052583576333948e-02 3.1257228358376882e-02 0.0000000000000000e+00  -2.2456155311373780e-06 -1.0620067150400084e-07 0.0000000000000000e+00  1.7686732729183886e-07 5.7138574158835839e-08 0.0000000000000000e+00  1.0686539522367729e-01 1.2251033281576127e-02 0.0000000000000000e+00  2.2134125404959176e-01 8.8960045796815431e-03 0.0000000000000000e+00  -5.1312904864877020e-07 -4.4401618335603705e-08 0.0000000000000000e+00  -2.2313080889509214e-06 3.0561467531816369e-07 0.0000000000000000e+00  2.3960342662905049e-07 2.7333394327929427e-07 0.0000000000000000e+00  -3.8267461587714363e-07 -3.7565888618826109e-08 0.0000000000000000e+00  -4.4900403641957600e-08 4.1500565814039498e-09 0.0000000000000000e+00  3.5738053539262748e-07 -3.5608320368965824e-08 0.0000000000000000e+00  -2.2342383477989134e-06 -2.6051320136921987e-07 0.0000000000000000e+00  5.3546181065217202e-07 -4.1563355801818359e-08 0.0000000000000000e+00  7.8368211859912178e-08 -5.9606962458160398e-09 0.0000000000000000e+00  -2.7136407233324464e-07 1.3968464925392091e-07 0.0000000000000000e+00  5.3744972564441048e-07 -6.7903945062373782e-08 0.0000000000000000e+00  -8.8836004797694393e-07 2.4207531768448135e-09 0.0000000000000000e+00  -2.3969520273847087e-07 2.8676111422294531e-09 0.0000000000000000e+00  4.4835543760500585e-02 5.6377812858877064e-03 0.0000000000000000e+00  1.1858715422691619e-01 -1.2409680505436773e-02 0.0000000000000000e+00  2.1474695873702265e-01 -1.4498344515397308e-02 0.0000000000000000e+00  1.1623404825676957e-01 9.8003032324697481e-03 0.0000000000000000e+00  2.9147262858961270e-01 7.5765479654807774e-02 0.0000000000000000e+00  3.3737375207315173e-01 5.3512739668002254e-02 0.0000000000000000e+00  3.1540529981626053e-01 2.6288361514786196e-02 0.0000000000000000e+00  1.4405096859672567e-01 -2.4057797531932087e-04 0.0000000000000000e+00  2.3533296246649776e-01 2.8266821266150814e-02 0.0000000000000000e+00  3.1737853642633990e-01 -7.0461965410255734e-02 0.0000000000000000e+00  8.8074474627696658e-02 -9.0759231864380643e-03 0.0000000000000000e+00  2.3188459988759380e-01 -6.4971565809008181e-04 0.0000000000000000e+00  2.3259123733402245e-01 -7.9240889547067394e-04 0.0000000000000000e+00  2.1930123510038735e-01 -5.6992687966069737e-04 0.0000000000000000e+00  2.2859632485122713e-01 9.4345510861836392e-04 0.0000000000000000e+00  1.2701087490858540e-01 6.3356360560035954e-04 0.0000000000000000e+00  1.3564955431010334e-01 -3.0168301467015899e-04 0.0000000000000000e+00  1.9878039586873289e-01 1.9053917995283973e-01 0.0000000000000000e+00  3.8962248545961406e-02 4.4961556912081889e-02 0.0000000000000000e+00  1.4087730080743199e-01 -1.2950868567276706e-02 0.0000000000000000e+00  2.1972384453946481e-01 -4.8963668004675057e-03 0.0000000000000000e+00  2.0771640120157472e-01 4.2031853994425588e-03 0.0000000000000000e+00  2.2079554813791777e-01 2.5607014058234043e-02 0.0000000000000000e+00  3.0224168986918459e-01 -7.9152209191630754e-02 0.0000000000000000e+00  2.1734756355562451e-01 -6.8550123796921826e-04 0.0000000000000000e+00  8.4536711580106214e-02 -4.2820579238434144e-06 0.0000000000000000e+00  2.6301689614069490e-01 -1.0787286513589626e-02 0.0000000000000000e+00  3.2870513793269279e-01 -5.0541813912474844e-02 0.0000000000000000e+00  1.2860931369944228e-01 3.5896913580301068e-03 0.0000000000000000e+00  2.1642723434587119e-01 1.0748651265254724e-02 0.0000000000000000e+00  1.3056813791556698e-01 4.4002008429060868e-04 0.0000000000000000e+00  1.6270841763895358e-01 7.6151284880156281e-02 0.0000000000000000e+00  2.4654806764823614e-01 1.3040558865163970e-01 0.0000000000000000e+00  2.1994379074499493e-01 3.1087343176382523e-02 0.0000000000000000e+00  1.6535674341064532e-01 -1.1868191780842795e-02 0.0000000000000000e+00  2.6462060501465584e-01 -3.1286120967692843e-02 0.0000000000000000e+00  2.7552412236586332e-01 -4.6895148051722776e-02 0.0000000000000000e+00  3.9247094332799604e-01 1.7994503906254986e-02 0.0000000000000000e+00  2.3670612620183898e-01 -3.3291177044925603e-02 0.0000000000000000e+00  2.1824963398760600e-01 -4.0357002287144235e-02 0.0000000000000000e+00  3.4064035176268276e-01 1.8377953650770110e-01 0.0000000000000000e+00  2.7755430050001018e-01 3.6393712917755588e-02 0.0000000000000000e+00  2.3159123673891191e-01 7.2349764629985741e-02 0.0000000000000000e+00  2.3297441483643389e-01 8.8004431299633246e-03 0.0000000000000000e+00  2.0050794706694414e-01 -4.3914052931699087e-04 0.0000000000000000e+00  2.2167655635983743e-01 -3.5333182037774688e-04 0.0000000000000000e+00  2.9902404668043847e-01 -3.8543204119472228e-02 0.0000000000000000e+00  1.2564925099712948e-01 2.5514033366522818e-02 0.0000000000000000e+00  7.3694528879042626e-02 5.8071377317791923e-03 0.0000000000000000e+00  2.1003580754321763e-01 2.1550589246707729e-02 0.0000000000000000e+00  1.5820024853316628e-01 4.9271609452521924e-02 0.0000000000000000e+00  2.5227315624387103e-01 -3.8314345108648527e-02 0.0000000000000000e+00  1.3905944539800189e-01 -1.6857851346263462e-02 0.0000000000000000e+00  4.2873399942951695e-02 -1.3397065190067321e-03 0.0000000000000000e+00  4.6291402607993692e-01 4.3170963533034228e-02 0.0000000000000000e+00  1.0593773861806806e-01 1.8720850448620450e-03 0.0000000000000000e+00  3.4771169045852302e-01 -2.6582112936113095e-02 0.0000000000000000e+00  2.0496074507659204e-01 -4.3637293001307873e-04 0.0000000000000000e+00  2.3838360971762634e-01 -1.1991839597388405e-02 0.0000000000000000e+00  1.7051865917504916e-01 2.2305071983767331e-02 0.0000000000000000e+00  2.1992683337899827e-01 -3.6899912109395317e-05 0.0000000000000000e+00  1.5691566951515626e-01 -4.6404623964674048e-02 0.0000000000000000e+00  2.6510360320540185e-02 2.4353780897296055e-03 0.0000000000000000e+00  1.0825568870510609e-01 3.0661146792321692e-03 0.0000000000000000e+00  1.5322628588451599e-03 -3.2404382310465057e-03 0.0000000000000000e+00  8.8743209702005665e-02 6.8067572137613377e-03 0.0000000000000000e+00  6.2804319626302854e-02 1.7637891851535279e-02 0.0000000000000000e+00  1.9822731690064060e-01 2.6994674241206761e-04 0.0000000000000000e+00  1.0715665980047216e-01 -2.4924503908104751e-05 0.0000000000000000e+00  4.0236741744317428e-01 -3.9749111254780645e-02 0.0000000000000000e+00  2.2976764043471340e-01 1.6144425752851198e-02 0.0000000000000000e+00  2.0763401854486599e-01 1.6395557135189388e-03 0.0000000000000000e+00  3.5785433028361950e-02 8.1088451478932399e-08 0.0000000000000000e+00  7.8010965603754964e-02 7.8005171944437847e-03 0.0000000000000000e+00  1.5902820233854001e-01 4.2062772812944300e-02 0.0000000000000000e+00  2.2664831609007219e-01 6.4122366989768182e-04 0.0000000000000000e+00  2.2472354711205517e-01 1.7171361354571743e-02 0.0000000000000000e+00  1.6621113654214406e-01 -6.8578700104392955e-03 0.0000000000000000e+00  3.2545355795000425e-01 -2.7554616546683900e-02 0.0000000000000000e+00  3.8094277555334127e-01 3.5632698319366093e-02 0.0000000000000000e+00  1.4438031003467952e-01 -2.0407083995339138e-03 0.0000000000000000e+00  9.1790142202601746e-02 3.6649443140343669e-03 0.0000000000000000e+00  1.1188034794325981e-01 -9.9364145047302490e-05 0.0000000000000000e+00  -8.0183674714742192e-03 1.5473216542970606e-02 0.0000000000000000e+00  3.3356378225369121e-01 3.2443290614637409e-08 0.0000000000000000e+00  6.1632900489298439e-02 -3.9634917044696055e-03 0.0000000000000000e+00  3.9187317294824658e-01 3.5875172964011997e-03 0.0000000000000000e+00  1.1706478871060254e-01 -2.0648340652024963e-04 0.0000000000000000e+00  3.2122002144749040e-01 -3.8303617480759451e-02 0.0000000000000000e+00  1.1852650668292083e-01 -3.1563202542354079e-08 0.0000000000000000e+00  2.2213667492396580e-01 -3.5198296285885290e-04 0.0000000000000000e+00  1.1116936449828355e-01 -8.1843933059846653e-05 0.0000000000000000e+00  2.1733315298594452e-01 -2.8527664506550638e-08 0.0000000000000000e+00  1.1170571321113157e-01 1.1602156035773455e-03 0.0000000000000000e+00  1.6702577616868264e-01 -5.4644647662659210e-03 0.0000000000000000e+00  2.2841527877204387e-01 -5.4654559455526272e-04 0.0000000000000000e+00  2.0966545998337922e-02 -1.1405934578880089e-02 0.0000000000000000e+00  4.7558226492077332e-02 -1.2062238900946780e-02 0.0000000000000000e+00  1.7094208097740665e-01 -5.3997078929091079e-02 0.0000000000000000e+00  2.8001074274503880e-03 3.9823502717427697e-03 0.0000000000000000e+00  3.1346278716102549e-01 -1.6409022097636564e-02 0.0000000000000000e+00  2.8673325557034601e-01 -1.7148382404392613e-02 0.0000000000000000e+00  4.0931409231325500e-01 -4.5837126341417782e-02 0.0000000000000000e+00  1.2464032732173899e-01 2.5263265108662670e-03 0.0000000000000000e+00  2.7514042979546055e-01 -3.4048154866592170e-02 0.0000000000000000e+00  2.8065274828610925e-01 -1.6795039923691524e-02 0.0000000000000000e+00  1.9146535000555376e-01 -5.7264788198422125e-04 0.0000000000000000e+00  1.9669543699880285e-01 -3.6686575333591334e-02 0.0000000000000000e+00  8.3381219693397471e-02 -1.3149548018982399e-04 0.0000000000000000e+00  1.8706901448562985e-01 -7.6258905299157438e-03 0.0000000000000000e+00  3